<?xml version="1.0" encoding="UTF-8"?>

<!-- generated on 2025-12-21T04:07:03.363971+05:30 by Eclipse SUMO sumo 1.25.0
<sumoConfiguration xmlns:xsi="http://www.w3.org/2001/XMLSchema-instance" xsi:noNamespaceSchemaLocation="http://sumo.dlr.de/xsd/sumoConfiguration.xsd">

    <input>
        <net-file value="/mnt/Windows-SSD/Users/yvavi/yeet/coding/projects/delhi/Code-Slayer-FDRL-Traffic/FDRL/sumo_files/mulund/osm.net.xml.gz"/>
        <route-files value="/mnt/Windows-SSD/Users/yvavi/yeet/coding/projects/delhi/Code-Slayer-FDRL-Traffic/FDRL/sumo_files/mulund/osm.bus.trips.xml,/mnt/Windows-SSD/Users/yvavi/yeet/coding/projects/delhi/Code-Slayer-FDRL-Traffic/FDRL/sumo_files/mulund/osm.motorcycle.trips.xml,/mnt/Windows-SSD/Users/yvavi/yeet/coding/projects/delhi/Code-Slayer-FDRL-Traffic/FDRL/sumo_files/mulund/osm.passenger.trips.xml,/mnt/Windows-SSD/Users/yvavi/yeet/coding/projects/delhi/Code-Slayer-FDRL-Traffic/FDRL/sumo_files/mulund/osm.truck.trips.xml"/>
        <additional-files value="/mnt/Windows-SSD/Users/yvavi/yeet/coding/projects/delhi/Code-Slayer-FDRL-Traffic/FDRL/sumo_files/mulund/osm.poly.xml.gz,/mnt/Windows-SSD/Users/yvavi/yeet/coding/projects/delhi/Code-Slayer-FDRL-Traffic/FDRL/sumo_files/mulund/output.add.xml,/mnt/Windows-SSD/Users/yvavi/yeet/coding/projects/delhi/Code-Slayer-FDRL-Traffic/FDRL/sumo_files/mulund/rl_traffic_lights.add.xml"/>
    </input>

    <time>
        <begin value="0"/>
        <end value="10000"/>
        <step-length value="1.0"/>
    </time>

    <processing>
        <extrapolate-departpos value="true"/>
        <ignore-route-errors value="true"/>
        <time-to-teleport value="300"/>
        <time-to-teleport.highways value="0"/>
        <max-depart-delay value="300"/>
        <eager-insert value="true"/>
    </processing>

    <routing>
        <device.rerouting.adaptation-steps value="180"/>
        <device.rerouting.adaptation-interval value="10"/>
    </routing>

    <report>
        <verbose value="false"/>
        <no-step-log value="true"/>
    </report>

    <traci_server>
        <remote-port value="51475"/>
    </traci_server>

</sumoConfiguration>
-->

<meandata xmlns:xsi="http://www.w3.org/2001/XMLSchema-instance" xsi:noNamespaceSchemaLocation="http://sumo.dlr.de/xsd/meandata_file.xsd">
    <interval begin="0.00" end="3600.00" id="wizard_example">
        <edge id="-1058975065" sampledSeconds="18.55" traveltime="4.35" overlapTraveltime="4.84" density="0.13" overlapDensity="0.14" laneDensity="0.13" occupancy="0.05" waitingTime="0.00" timeLoss="7.49" speed="8.43" speedRelative="0.61" departed="1" arrived="1" entered="3" left="3" laneChangedFrom="0" laneChangedTo="0" flow="3.85"/>
        <edge id="-1071051105#0" sampledSeconds="0.00" departed="0" arrived="0" entered="0" left="0" laneChangedFrom="0" laneChangedTo="0"/>
        <edge id="-1071051105#1" sampledSeconds="0.00" departed="0" arrived="0" entered="0" left="0" laneChangedFrom="0" laneChangedTo="0"/>
        <edge id="-1071051106" sampledSeconds="0.00" departed="0" arrived="0" entered="0" left="0" laneChangedFrom="0" laneChangedTo="0"/>
        <edge id="-1074140523" sampledSeconds="0.00" departed="0" arrived="0" entered="0" left="0" laneChangedFrom="0" laneChangedTo="0"/>
        <edge id="-1074564604#0" sampledSeconds="0.00" departed="0" arrived="0" entered="0" left="0" laneChangedFrom="0" laneChangedTo="0"/>
        <edge id="-1074564604#1" sampledSeconds="0.00" departed="0" arrived="0" entered="0" left="0" laneChangedFrom="0" laneChangedTo="0"/>
        <edge id="-1085539252" sampledSeconds="7.97" traveltime="7.98" overlapTraveltime="8.52" density="0.03" overlapDensity="0.03" laneDensity="0.03" occupancy="0.01" waitingTime="0.00" timeLoss="2.78" speed="9.14" speedRelative="0.66" departed="0" arrived="1" entered="1" left="0" laneChangedFrom="0" laneChangedTo="0" flow="1.00"/>
        <edge id="-1085539253" sampledSeconds="0.00" departed="0" arrived="0" entered="0" left="0" laneChangedFrom="0" laneChangedTo="0"/>
        <edge id="-1085539254#0" sampledSeconds="0.00" departed="0" arrived="0" entered="0" left="0" laneChangedFrom="0" laneChangedTo="0"/>
        <edge id="-1085539254#1" sampledSeconds="0.00" departed="0" arrived="0" entered="0" left="0" laneChangedFrom="0" laneChangedTo="0"/>
        <edge id="-1088426462" sampledSeconds="0.00" departed="0" arrived="0" entered="0" left="0" laneChangedFrom="0" laneChangedTo="0"/>
        <edge id="-1090409621#1" sampledSeconds="0.00" departed="0" arrived="0" entered="0" left="0" laneChangedFrom="0" laneChangedTo="0"/>
        <edge id="-1090409622" sampledSeconds="0.00" departed="0" arrived="0" entered="0" left="0" laneChangedFrom="0" laneChangedTo="0"/>
        <edge id="-1091135990" sampledSeconds="0.00" departed="0" arrived="0" entered="0" left="0" laneChangedFrom="0" laneChangedTo="0"/>
        <edge id="-1091258062" sampledSeconds="52.54" traveltime="6.79" overlapTraveltime="7.20" density="0.19" overlapDensity="0.20" laneDensity="0.19" occupancy="0.06" waitingTime="0.00" timeLoss="10.32" speed="10.52" speedRelative="0.76" departed="7" arrived="0" entered="0" left="7" laneChangedFrom="0" laneChangedTo="0" flow="7.17"/>
        <edge id="-1091258063" sampledSeconds="20.10" traveltime="6.25" overlapTraveltime="6.45" density="0.07" overlapDensity="0.07" laneDensity="0.07" occupancy="0.02" waitingTime="0.00" timeLoss="1.98" speed="12.60" speedRelative="0.91" departed="3" arrived="0" entered="0" left="3" laneChangedFrom="0" laneChangedTo="0" flow="3.11"/>
        <edge id="-1092621396#0" sampledSeconds="41.18" traveltime="3.72" overlapTraveltime="4.59" density="0.31" overlapDensity="0.38" laneDensity="0.31" occupancy="0.13" waitingTime="0.00" timeLoss="12.48" speed="7.50" speedRelative="0.54" departed="0" arrived="0" entered="9" left="9" laneChangedFrom="0" laneChangedTo="0" flow="8.29"/>
        <edge id="-1092621396#1" sampledSeconds="12.21" traveltime="3.58" overlapTraveltime="3.91" density="0.07" overlapDensity="0.08" laneDensity="0.07" occupancy="0.03" waitingTime="0.00" timeLoss="0.63" speed="12.29" speedRelative="0.89" departed="3" arrived="0" entered="0" left="3" laneChangedFrom="0" laneChangedTo="0" flow="3.14"/>
        <edge id="-1093036737" sampledSeconds="46.18" traveltime="6.79" overlapTraveltime="7.34" density="0.15" overlapDensity="0.17" laneDensity="0.15" occupancy="0.07" waitingTime="0.00" timeLoss="7.73" speed="11.08" speedRelative="0.80" departed="6" arrived="0" entered="0" left="6" laneChangedFrom="0" laneChangedTo="0" flow="6.15"/>
        <edge id="-1093111413" sampledSeconds="0.00" departed="0" arrived="0" entered="0" left="0" laneChangedFrom="0" laneChangedTo="0"/>
        <edge id="-1093111414" sampledSeconds="0.00" departed="0" arrived="0" entered="0" left="0" laneChangedFrom="0" laneChangedTo="0"/>
        <edge id="-1104594356" sampledSeconds="0.00" departed="0" arrived="0" entered="0" left="0" laneChangedFrom="0" laneChangedTo="0"/>
        <edge id="-1107662879" sampledSeconds="4366.60" traveltime="91.65" overlapTraveltime="96.12" density="29.56" overlapDensity="30.00" laneDensity="29.56" occupancy="16.97" waitingTime="3335.00" timeLoss="3665.55" speed="0.48" speedRelative="0.17" departed="0" arrived="2" entered="48" left="45" laneChangedFrom="0" laneChangedTo="0" teleported="1" flow="51.15"/>
        <edge id="-1120031774" sampledSeconds="0.00" departed="0" arrived="0" entered="0" left="0" laneChangedFrom="0" laneChangedTo="0"/>
        <edge id="-1120031777#0" sampledSeconds="8739.22" traveltime="96.40" overlapTraveltime="109.54" density="24.64" overlapDensity="28.22" laneDensity="24.64" occupancy="9.86" waitingTime="7299.00" timeLoss="8209.32" speed="0.82" speedRelative="0.06" departed="1" arrived="2" entered="79" left="77" laneChangedFrom="0" laneChangedTo="0" flow="72.99"/>
        <edge id="-1120031777#2" sampledSeconds="569.51" traveltime="9.73" overlapTraveltime="10.36" density="1.27" overlapDensity="1.36" laneDensity="1.27" occupancy="0.64" waitingTime="7.00" timeLoss="72.21" speed="11.76" speedRelative="0.85" departed="2" arrived="1" entered="53" left="54" laneChangedFrom="0" laneChangedTo="0" flow="53.84"/>
        <edge id="-1120031777#3" sampledSeconds="505.28" traveltime="8.45" overlapTraveltime="8.97" density="3.55" overlapDensity="3.87" laneDensity="3.55" occupancy="1.39" waitingTime="284.00" timeLoss="335.92" speed="4.50" speedRelative="0.32" departed="0" arrived="2" entered="55" left="51" laneChangedFrom="0" laneChangedTo="0" flow="57.53"/>
        <edge id="-1120031777#4" sampledSeconds="1012.78" traveltime="14.03" overlapTraveltime="14.94" density="1.61" overlapDensity="1.71" laneDensity="1.61" occupancy="0.89" waitingTime="11.00" timeLoss="152.60" speed="11.40" speedRelative="0.82" departed="3" arrived="1" entered="65" left="67" laneChangedFrom="0" laneChangedTo="0" flow="65.86"/>
        <edge id="-1120035416#0" sampledSeconds="95.98" traveltime="2.73" overlapTraveltime="3.49" density="0.54" overlapDensity="0.68" laneDensity="0.54" occupancy="0.32" waitingTime="0.00" timeLoss="37.02" speed="12.94" speedRelative="0.58" departed="1" arrived="1" entered="27" left="27" laneChangedFrom="0" laneChangedTo="0" flow="25.09"/>
        <edge id="-1120036792#0" sampledSeconds="564.03" traveltime="5.10" overlapTraveltime="6.17" density="1.94" overlapDensity="2.34" laneDensity="1.94" occupancy="1.34" waitingTime="9.00" timeLoss="215.39" speed="11.96" speedRelative="0.54" departed="3" arrived="4" entered="89" left="88" laneChangedFrom="0" laneChangedTo="0" flow="83.46"/>
        <edge id="-1120036792#1" sampledSeconds="1738.19" traveltime="13.05" overlapTraveltime="17.29" density="9.88" overlapDensity="12.54" laneDensity="9.88" occupancy="9.27" waitingTime="1341.00" timeLoss="1516.35" speed="2.70" speedRelative="0.12" departed="1" arrived="4" entered="104" left="101" laneChangedFrom="0" laneChangedTo="0" flow="96.07"/>
        <edge id="-1120036792#2" sampledSeconds="1959.96" traveltime="15.79" overlapTraveltime="16.69" density="6.09" overlapDensity="6.47" laneDensity="6.09" occupancy="3.53" waitingTime="1071.00" timeLoss="1469.19" speed="5.39" speedRelative="0.24" departed="1" arrived="3" entered="116" left="114" laneChangedFrom="0" laneChangedTo="0" flow="118.15"/>
        <edge id="-1120160502" sampledSeconds="0.00" departed="0" arrived="0" entered="0" left="0" laneChangedFrom="0" laneChangedTo="0"/>
        <edge id="-1120175943" sampledSeconds="0.00" departed="0" arrived="0" entered="0" left="0" laneChangedFrom="0" laneChangedTo="0"/>
        <edge id="-1120175944" sampledSeconds="0.00" departed="0" arrived="0" entered="0" left="0" laneChangedFrom="0" laneChangedTo="0"/>
        <edge id="-1120175945" sampledSeconds="0.00" departed="0" arrived="0" entered="0" left="0" laneChangedFrom="0" laneChangedTo="0"/>
        <edge id="-1120175948" sampledSeconds="0.00" departed="0" arrived="0" entered="0" left="0" laneChangedFrom="0" laneChangedTo="0"/>
        <edge id="-1120175949" sampledSeconds="0.00" departed="0" arrived="0" entered="0" left="0" laneChangedFrom="0" laneChangedTo="0"/>
        <edge id="-1120175950" sampledSeconds="0.00" departed="0" arrived="0" entered="0" left="0" laneChangedFrom="0" laneChangedTo="0"/>
        <edge id="-1120175952" sampledSeconds="0.00" departed="0" arrived="0" entered="0" left="0" laneChangedFrom="0" laneChangedTo="0"/>
        <edge id="-1120175956" sampledSeconds="0.00" departed="0" arrived="0" entered="0" left="0" laneChangedFrom="0" laneChangedTo="0"/>
        <edge id="-1120175972" sampledSeconds="116.77" traveltime="3.71" overlapTraveltime="4.34" density="0.69" overlapDensity="0.80" laneDensity="0.69" occupancy="0.36" waitingTime="0.00" timeLoss="31.43" speed="10.52" speedRelative="0.76" departed="26" arrived="0" entered="0" left="26" laneChangedFrom="0" laneChangedTo="0" flow="26.17"/>
        <edge id="-1120175973" sampledSeconds="0.00" departed="0" arrived="0" entered="0" left="0" laneChangedFrom="0" laneChangedTo="0"/>
        <edge id="-1120175974" sampledSeconds="0.00" departed="0" arrived="0" entered="0" left="0" laneChangedFrom="0" laneChangedTo="0"/>
        <edge id="-1120175975" sampledSeconds="0.00" departed="0" arrived="0" entered="0" left="0" laneChangedFrom="0" laneChangedTo="0"/>
        <edge id="-1120175977" sampledSeconds="0.00" departed="0" arrived="0" entered="0" left="0" laneChangedFrom="0" laneChangedTo="0"/>
        <edge id="-1120175980#0" sampledSeconds="0.00" departed="0" arrived="0" entered="0" left="0" laneChangedFrom="0" laneChangedTo="0"/>
        <edge id="-1120175980#1" sampledSeconds="0.00" departed="0" arrived="0" entered="0" left="0" laneChangedFrom="0" laneChangedTo="0"/>
        <edge id="-1120175981" sampledSeconds="0.00" departed="0" arrived="0" entered="0" left="0" laneChangedFrom="0" laneChangedTo="0"/>
        <edge id="-1120175987" sampledSeconds="158.17" traveltime="5.39" overlapTraveltime="5.67" density="0.42" overlapDensity="0.45" laneDensity="0.42" occupancy="0.24" waitingTime="0.00" timeLoss="25.86" speed="18.43" speedRelative="0.83" departed="2" arrived="2" entered="26" left="26" laneChangedFrom="0" laneChangedTo="0" flow="28.12"/>
        <edge id="-1120175996" sampledSeconds="0.00" departed="0" arrived="0" entered="0" left="0" laneChangedFrom="0" laneChangedTo="0"/>
        <edge id="-1120175997" sampledSeconds="162.38" traveltime="5.43" overlapTraveltime="6.17" density="0.65" overlapDensity="0.73" laneDensity="0.65" occupancy="0.37" waitingTime="0.00" timeLoss="24.84" speed="10.89" speedRelative="0.78" departed="22" arrived="0" entered="4" left="26" laneChangedFrom="0" laneChangedTo="0" flow="25.48"/>
        <edge id="-1120729741" sampledSeconds="0.00" departed="0" arrived="0" entered="0" left="0" laneChangedFrom="0" laneChangedTo="0"/>
        <edge id="-1121006711" sampledSeconds="0.00" departed="0" arrived="0" entered="0" left="0" laneChangedFrom="0" laneChangedTo="0"/>
        <edge id="-1121147900#0" sampledSeconds="0.00" departed="0" arrived="0" entered="0" left="0" laneChangedFrom="0" laneChangedTo="0"/>
        <edge id="-1121147900#1" sampledSeconds="0.00" departed="0" arrived="0" entered="0" left="0" laneChangedFrom="0" laneChangedTo="0"/>
        <edge id="-1121147901" sampledSeconds="0.00" departed="0" arrived="0" entered="0" left="0" laneChangedFrom="0" laneChangedTo="0"/>
        <edge id="-1121230249" sampledSeconds="0.00" departed="0" arrived="0" entered="0" left="0" laneChangedFrom="0" laneChangedTo="0"/>
        <edge id="-1121230251" sampledSeconds="0.00" departed="0" arrived="0" entered="0" left="0" laneChangedFrom="0" laneChangedTo="0"/>
        <edge id="-1121687688" sampledSeconds="174.23" traveltime="10.55" overlapTraveltime="10.95" density="0.36" overlapDensity="0.37" laneDensity="0.36" occupancy="0.16" waitingTime="0.00" timeLoss="18.06" speed="12.37" speedRelative="0.89" departed="2" arrived="2" entered="14" left="14" laneChangedFrom="0" laneChangedTo="0" flow="15.86"/>
        <edge id="-1122104213" sampledSeconds="0.00" departed="0" arrived="0" entered="0" left="0" laneChangedFrom="0" laneChangedTo="0"/>
        <edge id="-1124140020" sampledSeconds="0.00" departed="0" arrived="0" entered="0" left="0" laneChangedFrom="0" laneChangedTo="0"/>
        <edge id="-1126532282" sampledSeconds="1341.53" traveltime="46.12" overlapTraveltime="47.47" density="3.75" overlapDensity="3.87" laneDensity="3.75" occupancy="1.87" waitingTime="0.00" timeLoss="338.68" speed="2.13" speedRelative="0.77" departed="21" arrived="0" entered="8" left="29" laneChangedFrom="0" laneChangedTo="0" flow="28.79"/>
        <edge id="-1126732420" sampledSeconds="0.00" departed="0" arrived="0" entered="0" left="0" laneChangedFrom="0" laneChangedTo="0"/>
        <edge id="-1126732421" sampledSeconds="0.00" departed="0" arrived="0" entered="0" left="0" laneChangedFrom="0" laneChangedTo="0"/>
        <edge id="-1126732422" sampledSeconds="0.00" departed="0" arrived="0" entered="0" left="0" laneChangedFrom="0" laneChangedTo="0"/>
        <edge id="-1126732432#0" sampledSeconds="0.00" departed="0" arrived="0" entered="0" left="0" laneChangedFrom="0" laneChangedTo="0"/>
        <edge id="-1126732432#1" sampledSeconds="0.00" departed="0" arrived="0" entered="0" left="0" laneChangedFrom="0" laneChangedTo="0"/>
        <edge id="-1126732432#2" sampledSeconds="0.00" departed="0" arrived="0" entered="0" left="0" laneChangedFrom="0" laneChangedTo="0"/>
        <edge id="-1126732432#3" sampledSeconds="0.00" departed="0" arrived="0" entered="0" left="0" laneChangedFrom="0" laneChangedTo="0"/>
        <edge id="-1126750017" sampledSeconds="0.00" departed="0" arrived="0" entered="0" left="0" laneChangedFrom="0" laneChangedTo="0"/>
        <edge id="-1126750036" sampledSeconds="142.13" traveltime="7.68" overlapTraveltime="8.58" density="1.94" overlapDensity="2.32" laneDensity="1.94" occupancy="0.84" waitingTime="0.00" timeLoss="42.71" speed="2.45" speedRelative="0.88" departed="19" arrived="0" entered="0" left="19" laneChangedFrom="0" laneChangedTo="0" flow="17.16"/>
        <edge id="-1126750037" sampledSeconds="0.00" departed="0" arrived="0" entered="0" left="0" laneChangedFrom="0" laneChangedTo="0"/>
        <edge id="-1126750040" sampledSeconds="0.00" departed="0" arrived="0" entered="0" left="0" laneChangedFrom="0" laneChangedTo="0"/>
        <edge id="-1126750041#0" sampledSeconds="54.51" traveltime="0.05" overlapTraveltime="2.04" density="5.17" overlapDensity="151.41" laneDensity="5.17" occupancy="1.48" waitingTime="0.00" timeLoss="39.84" speed="3.32" speedRelative="1.19" departed="1" arrived="4" entered="40" left="37" laneChangedFrom="0" laneChangedTo="0" flow="61.74"/>
        <edge id="-1126750041#1" sampledSeconds="1485.34" traveltime="35.79" overlapTraveltime="37.66" density="5.20" overlapDensity="5.49" laneDensity="5.20" occupancy="2.21" waitingTime="2.00" timeLoss="349.40" speed="2.11" speedRelative="0.76" departed="23" arrived="0" entered="18" left="40" laneChangedFrom="0" laneChangedTo="0" flow="39.49"/>
        <edge id="-1126750042" sampledSeconds="276.32" traveltime="7.74" overlapTraveltime="9.72" density="0.81" overlapDensity="1.00" laneDensity="0.81" occupancy="0.44" waitingTime="0.00" timeLoss="68.55" speed="8.40" speedRelative="0.60" departed="6" arrived="0" entered="23" left="29" laneChangedFrom="0" laneChangedTo="0" flow="24.34"/>
        <edge id="-1126864976" sampledSeconds="0.00" departed="0" arrived="0" entered="0" left="0" laneChangedFrom="0" laneChangedTo="0"/>
        <edge id="-1127681388" sampledSeconds="0.00" departed="0" arrived="0" entered="0" left="0" laneChangedFrom="0" laneChangedTo="0"/>
        <edge id="-1127854503" sampledSeconds="0.00" departed="0" arrived="0" entered="0" left="0" laneChangedFrom="0" laneChangedTo="0"/>
        <edge id="-1132467157" sampledSeconds="0.00" departed="0" arrived="0" entered="0" left="0" laneChangedFrom="0" laneChangedTo="0"/>
        <edge id="-1133787479" sampledSeconds="1739.17" traveltime="67.65" overlapTraveltime="69.80" density="7.46" overlapDensity="7.53" laneDensity="7.46" occupancy="3.92" waitingTime="1533.00" timeLoss="1611.01" speed="0.99" speedRelative="0.07" departed="25" arrived="0" entered="0" left="23" laneChangedFrom="0" laneChangedTo="0" teleported="1" flow="26.68"/>
        <edge id="-1147810238" sampledSeconds="21.80" traveltime="3.38" overlapTraveltime="4.18" density="0.14" overlapDensity="0.17" laneDensity="0.14" occupancy="0.07" waitingTime="0.00" timeLoss="5.20" speed="9.35" speedRelative="0.67" departed="5" arrived="0" entered="0" left="5" laneChangedFrom="0" laneChangedTo="0" flow="4.82"/>
        <edge id="-1147810239" sampledSeconds="46.97" traveltime="3.18" overlapTraveltime="3.80" density="0.39" overlapDensity="0.45" laneDensity="0.39" occupancy="0.15" waitingTime="0.00" timeLoss="14.49" speed="8.57" speedRelative="0.62" departed="9" arrived="0" entered="2" left="11" laneChangedFrom="0" laneChangedTo="0" flow="11.89"/>
        <edge id="-1158472550" sampledSeconds="0.00" departed="0" arrived="0" entered="0" left="0" laneChangedFrom="0" laneChangedTo="0"/>
        <edge id="-1161004434#0" sampledSeconds="107.23" traveltime="6.40" overlapTraveltime="6.74" density="0.35" overlapDensity="0.36" laneDensity="0.35" occupancy="0.15" waitingTime="0.00" timeLoss="8.77" speed="12.86" speedRelative="0.93" departed="0" arrived="16" entered="16" left="0" laneChangedFrom="0" laneChangedTo="0" flow="16.02"/>
        <edge id="-1161004434#1" sampledSeconds="181.42" traveltime="8.29" overlapTraveltime="8.76" density="0.53" overlapDensity="0.56" laneDensity="0.53" occupancy="0.25" waitingTime="0.00" timeLoss="40.63" speed="10.80" speedRelative="0.78" departed="4" arrived="2" entered="17" left="19" laneChangedFrom="0" laneChangedTo="0" flow="20.72"/>
        <edge id="-1171539006" sampledSeconds="97.77" traveltime="1.38" overlapTraveltime="2.46" density="2.57" overlapDensity="4.75" laneDensity="2.57" occupancy="1.63" waitingTime="18.00" timeLoss="67.61" speed="5.04" speedRelative="0.18" departed="2" arrived="3" entered="44" left="43" laneChangedFrom="0" laneChangedTo="0" flow="46.65"/>
        <edge id="-1171540751" sampledSeconds="1053.51" traveltime="3.76" overlapTraveltime="5.14" density="19.69" overlapDensity="26.75" laneDensity="19.69" occupancy="11.80" waitingTime="589.00" timeLoss="927.28" speed="3.31" speedRelative="0.12" departed="1" arrived="0" entered="207" left="208" laneChangedFrom="0" laneChangedTo="0" flow="234.80"/>
        <edge id="-1175243333" sampledSeconds="73.68" traveltime="3.79" overlapTraveltime="4.52" density="0.52" overlapDensity="0.59" laneDensity="0.52" occupancy="0.26" waitingTime="0.00" timeLoss="25.48" speed="8.85" speedRelative="0.64" departed="0" arrived="13" entered="17" left="4" laneChangedFrom="0" laneChangedTo="0" flow="16.41"/>
        <edge id="-1175243334" sampledSeconds="676.60" traveltime="68.90" overlapTraveltime="70.06" density="4.76" overlapDensity="4.79" laneDensity="4.76" occupancy="1.81" waitingTime="619.00" timeLoss="645.47" speed="0.61" speedRelative="0.04" departed="3" arrived="3" entered="7" left="7" laneChangedFrom="0" laneChangedTo="0" teleported="1" flow="10.52"/>
        <edge id="-1175268521" sampledSeconds="234.32" traveltime="9.24" overlapTraveltime="10.32" density="0.63" overlapDensity="0.70" laneDensity="0.63" occupancy="0.39" waitingTime="3.00" timeLoss="60.56" speed="9.59" speedRelative="0.69" departed="3" arrived="0" entered="20" left="23" laneChangedFrom="0" laneChangedTo="0" flow="21.76"/>
        <edge id="-1175268522" sampledSeconds="0.00" departed="0" arrived="0" entered="0" left="0" laneChangedFrom="0" laneChangedTo="0"/>
        <edge id="-1175829716" sampledSeconds="235.65" traveltime="46.52" overlapTraveltime="48.08" density="0.69" overlapDensity="0.70" laneDensity="0.69" occupancy="0.23" waitingTime="0.00" timeLoss="58.34" speed="2.02" speedRelative="0.73" departed="0" arrived="5" entered="5" left="0" laneChangedFrom="0" laneChangedTo="0" flow="5.01"/>
        <edge id="-1176129290" sampledSeconds="0.00" departed="0" arrived="0" entered="0" left="0" laneChangedFrom="0" laneChangedTo="0"/>
        <edge id="-1176131828" sampledSeconds="53.58" traveltime="8.18" overlapTraveltime="8.55" density="0.15" overlapDensity="0.16" laneDensity="0.15" occupancy="0.04" waitingTime="0.00" timeLoss="7.92" speed="11.31" speedRelative="0.81" departed="6" arrived="0" entered="0" left="6" laneChangedFrom="0" laneChangedTo="0" flow="6.17"/>
        <edge id="-1176132762#0" sampledSeconds="491.35" traveltime="4.75" overlapTraveltime="5.76" density="2.74" overlapDensity="3.30" laneDensity="2.74" occupancy="1.79" waitingTime="0.00" timeLoss="184.13" speed="8.32" speedRelative="0.60" departed="1" arrived="0" entered="85" left="86" laneChangedFrom="0" laneChangedTo="0" flow="82.19"/>
        <edge id="-1176132762#1" sampledSeconds="346.25" traveltime="3.28" overlapTraveltime="4.08" density="2.22" overlapDensity="2.75" laneDensity="2.22" occupancy="1.49" waitingTime="0.00" timeLoss="67.85" speed="10.20" speedRelative="0.73" departed="7" arrived="2" entered="80" left="85" laneChangedFrom="0" laneChangedTo="0" flow="81.68"/>
        <edge id="-1176132762#2" sampledSeconds="301.42" traveltime="3.23" overlapTraveltime="3.70" density="1.74" overlapDensity="1.99" laneDensity="1.74" occupancy="1.04" waitingTime="0.00" timeLoss="20.42" speed="13.06" speedRelative="0.94" departed="2" arrived="2" entered="80" left="80" laneChangedFrom="0" laneChangedTo="0" flow="82.05"/>
        <edge id="-1176132762#3" sampledSeconds="614.96" traveltime="7.16" overlapTraveltime="7.62" density="1.81" overlapDensity="1.93" laneDensity="1.81" occupancy="1.10" waitingTime="0.00" timeLoss="68.82" speed="12.45" speedRelative="0.90" departed="4" arrived="1" entered="77" left="80" laneChangedFrom="0" laneChangedTo="0" flow="81.19"/>
        <edge id="-1176132762#4" sampledSeconds="102.16" traveltime="0.70" overlapTraveltime="1.49" density="1.68" overlapDensity="3.46" laneDensity="1.68" occupancy="1.36" waitingTime="0.00" timeLoss="26.69" speed="10.34" speedRelative="0.74" departed="8" arrived="0" entered="69" left="77" laneChangedFrom="0" laneChangedTo="0" flow="62.63"/>
        <edge id="-1176132762#5" sampledSeconds="661.86" traveltime="8.92" overlapTraveltime="9.43" density="1.82" overlapDensity="1.91" laneDensity="1.82" occupancy="1.13" waitingTime="0.00" timeLoss="147.84" speed="10.88" speedRelative="0.78" departed="7" arrived="2" entered="64" left="69" laneChangedFrom="0" laneChangedTo="0" flow="71.20"/>
        <edge id="-1176132762#6" sampledSeconds="114.26" traveltime="4.47" overlapTraveltime="4.85" density="0.50" overlapDensity="0.54" laneDensity="0.50" occupancy="0.25" waitingTime="0.00" timeLoss="6.50" speed="13.17" speedRelative="0.95" departed="23" arrived="0" entered="0" left="23" laneChangedFrom="0" laneChangedTo="0" flow="23.54"/>
        <edge id="-1176133876" sampledSeconds="0.00" departed="0" arrived="0" entered="0" left="0" laneChangedFrom="0" laneChangedTo="0"/>
        <edge id="-1177177068#0" sampledSeconds="337.33" traveltime="11.82" overlapTraveltime="11.46" density="212.77" overlapDensity="212.77" laneDensity="212.77" occupancy="5.11" waitingTime="300.47" timeLoss="316.29" speed="0.48" speedRelative="0.03" departed="5" arrived="0" entered="26" left="31" laneChangedFrom="0" laneChangedTo="0" teleported="1" flow="366.48"/>
        <edge id="-1177177068#1" sampledSeconds="217.04" traveltime="11.34" overlapTraveltime="12.16" density="1.69" overlapDensity="1.80" laneDensity="1.69" occupancy="0.90" waitingTime="152.00" timeLoss="166.95" speed="3.18" speedRelative="0.23" departed="17" arrived="0" entered="2" left="17" laneChangedFrom="0" laneChangedTo="0" flow="19.38"/>
        <edge id="-1177177536#0" sampledSeconds="2802.03" traveltime="69.77" overlapTraveltime="73.23" density="55.49" overlapDensity="56.20" laneDensity="55.49" occupancy="24.71" waitingTime="2636.00" timeLoss="2737.65" speed="0.25" speedRelative="0.02" departed="2" arrived="1" entered="38" left="38" laneChangedFrom="0" laneChangedTo="0" teleported="1" flow="50.05"/>
        <edge id="-1177177536#1" sampledSeconds="656.65" traveltime="35.39" overlapTraveltime="36.70" density="9.03" overlapDensity="9.19" laneDensity="9.03" occupancy="4.51" waitingTime="598.00" timeLoss="623.66" speed="0.68" speedRelative="0.05" departed="12" arrived="0" entered="10" left="19" laneChangedFrom="0" laneChangedTo="0" flow="21.99"/>
        <edge id="-1177178388" sampledSeconds="0.00" departed="0" arrived="0" entered="0" left="0" laneChangedFrom="0" laneChangedTo="0"/>
        <edge id="-1177178389#0" sampledSeconds="10237.04" traveltime="36.40" overlapTraveltime="40.57" density="45.58" overlapDensity="50.76" laneDensity="45.58" occupancy="26.92" waitingTime="6308.00" timeLoss="9529.25" speed="1.52" speedRelative="0.07" departed="5" arrived="3" entered="248" left="250" laneChangedFrom="0" laneChangedTo="0" flow="250.12"/>
        <edge id="-1177178389#1" sampledSeconds="4437.44" traveltime="16.65" overlapTraveltime="17.26" density="35.63" overlapDensity="37.47" laneDensity="35.63" occupancy="18.03" waitingTime="2936.00" timeLoss="3993.63" speed="2.21" speedRelative="0.10" departed="0" arrived="5" entered="254" left="248" laneChangedFrom="0" laneChangedTo="0" flow="282.96"/>
        <edge id="-1177178389#2" sampledSeconds="2947.87" traveltime="9.61" overlapTraveltime="10.41" density="31.39" overlapDensity="33.78" laneDensity="31.39" occupancy="17.60" waitingTime="1830.00" timeLoss="2528.48" speed="2.90" speedRelative="0.13" departed="1" arrived="0" entered="284" left="285" laneChangedFrom="0" laneChangedTo="0" flow="327.79"/>
        <edge id="-1186853110" sampledSeconds="53.30" traveltime="7.77" overlapTraveltime="8.67" density="0.15" overlapDensity="0.17" laneDensity="0.15" occupancy="0.08" waitingTime="0.00" timeLoss="8.06" speed="10.69" speedRelative="0.77" departed="6" arrived="0" entered="0" left="6" laneChangedFrom="0" laneChangedTo="0" flow="5.82"/>
        <edge id="-1187198007" sampledSeconds="0.00" departed="0" arrived="0" entered="0" left="0" laneChangedFrom="0" laneChangedTo="0"/>
        <edge id="-1187806250" sampledSeconds="1074.11" traveltime="36.99" overlapTraveltime="37.92" density="23.37" overlapDensity="24.42" laneDensity="23.37" occupancy="10.95" waitingTime="960.00" timeLoss="1021.30" speed="0.48" speedRelative="0.03" departed="26" arrived="0" entered="26" left="39" laneChangedFrom="0" laneChangedTo="0" teleported="2" flow="40.17"/>
        <edge id="-1187808932" sampledSeconds="86.69" traveltime="5.48" overlapTraveltime="5.82" density="0.37" overlapDensity="0.39" laneDensity="0.37" occupancy="0.16" waitingTime="0.00" timeLoss="16.91" speed="11.30" speedRelative="0.81" departed="0" arrived="15" entered="15" left="0" laneChangedFrom="0" laneChangedTo="0" flow="15.14"/>