<?xml version="1.0" encoding="UTF-8"?>

<!-- generated on 2025-12-21T04:48:03.011839+05:30 by Eclipse SUMO GUI 1.25.0
<sumoConfiguration xmlns:xsi="http://www.w3.org/2001/XMLSchema-instance" xsi:noNamespaceSchemaLocation="http://sumo.dlr.de/xsd/sumoConfiguration.xsd">

    <input>
        <net-file value="sumo_files/dy/osm_tls.net.xml.gz"/>
        <route-files value="sumo_files/dy/   osm.passenger.trips_scaled.xml,sumo_files/dy/   osm.motorcycle.trips_scaled.xml,sumo_files/dy/   osm.bus.trips_scaled.xml,sumo_files/dy/   osm.truck.trips_scaled.xml"/>
        <additional-files value="sumo_files/dy/osm.poly.xml.gz,sumo_files/dy/output.add.xml,sumo_files/dy/rl_traffic_lights.add.xml"/>
    </input>

    <output>
        <tripinfo-output value="sumo_files/dy/tripinfos.xml"/>
        <statistic-output value="sumo_files/dy/stats.xml"/>
    </output>

    <time>
        <step-length value="1.0"/>
    </time>

    <processing>
        <ignore-route-errors value="true"/>
        <time-to-teleport value="300"/>
        <tls.actuated.jam-threshold value="30"/>
    </processing>

    <routing>
        <device.rerouting.adaptation-steps value="18"/>
        <device.rerouting.adaptation-interval value="10"/>
    </routing>

    <report>
        <verbose value="true"/>
        <no-warnings value="true"/>
        <duration-log.disable value="true"/>
        <duration-log.statistics value="true"/>
        <no-step-log value="true"/>
    </report>

    <traci_server>
        <remote-port value="38825"/>
    </traci_server>

    <gui_only>
        <gui-settings-file value="sumo_files/dy/osm.view.xml"/>
    </gui_only>

</sumoConfiguration>
-->

<meandata xmlns:xsi="http://www.w3.org/2001/XMLSchema-instance" xsi:noNamespaceSchemaLocation="http://sumo.dlr.de/xsd/meandata_file.xsd">
    <interval begin="0.00" end="3600.00" id="wizard_example">
        <edge id="-1030346760" sampledSeconds="0.00" departed="0" arrived="0" entered="0" left="0" laneChangedFrom="0" laneChangedTo="0"/>
        <edge id="-1047588330" sampledSeconds="0.00" departed="0" arrived="0" entered="0" left="0" laneChangedFrom="0" laneChangedTo="0"/>
        <edge id="-1053903048" sampledSeconds="0.00" departed="0" arrived="0" entered="0" left="0" laneChangedFrom="0" laneChangedTo="0"/>
        <edge id="-1053903050#0" sampledSeconds="0.00" departed="0" arrived="0" entered="0" left="0" laneChangedFrom="0" laneChangedTo="0"/>
        <edge id="-1053903050#1" sampledSeconds="0.00" departed="0" arrived="0" entered="0" left="0" laneChangedFrom="0" laneChangedTo="0"/>
        <edge id="-1063809123" sampledSeconds="0.00" departed="0" arrived="0" entered="0" left="0" laneChangedFrom="0" laneChangedTo="0"/>
        <edge id="-1064522846" sampledSeconds="0.00" departed="0" arrived="0" entered="0" left="0" laneChangedFrom="0" laneChangedTo="0"/>
        <edge id="-1075269720" sampledSeconds="0.00" departed="0" arrived="0" entered="0" left="0" laneChangedFrom="0" laneChangedTo="0"/>
        <edge id="-1078958802#1" sampledSeconds="1482.25" traveltime="10.87" overlapTraveltime="17.33" density="21.97" overlapDensity="36.60" laneDensity="21.97" occupancy="11.39" waitingTime="1249.00" timeLoss="1411.89" speed="0.93" speedRelative="0.04" departed="7" arrived="3" entered="79" left="81" laneChangedFrom="0" laneChangedTo="0" flow="73.60"/>
        <edge id="-1090914679" sampledSeconds="0.00" departed="0" arrived="0" entered="0" left="0" laneChangedFrom="0" laneChangedTo="0"/>
        <edge id="-1092624647" sampledSeconds="0.00" departed="0" arrived="0" entered="0" left="0" laneChangedFrom="0" laneChangedTo="0"/>
        <edge id="-1105148129" sampledSeconds="0.00" departed="0" arrived="0" entered="0" left="0" laneChangedFrom="0" laneChangedTo="0"/>
        <edge id="-1105791652" sampledSeconds="321.58" traveltime="64.29" overlapTraveltime="65.89" density="0.69" overlapDensity="0.70" laneDensity="0.69" occupancy="0.27" waitingTime="19.00" timeLoss="94.76" speed="2.00" speedRelative="0.72" departed="2" arrived="3" entered="3" left="2" laneChangedFrom="0" laneChangedTo="0" flow="4.97"/>
        <edge id="-1107314440" sampledSeconds="0.00" departed="0" arrived="0" entered="0" left="0" laneChangedFrom="0" laneChangedTo="0"/>
        <edge id="-1111931884" sampledSeconds="0.00" departed="0" arrived="0" entered="0" left="0" laneChangedFrom="0" laneChangedTo="0"/>
        <edge id="-1116936513" sampledSeconds="0.00" departed="0" arrived="0" entered="0" left="0" laneChangedFrom="0" laneChangedTo="0"/>
        <edge id="-1116936514" sampledSeconds="0.00" departed="0" arrived="0" entered="0" left="0" laneChangedFrom="0" laneChangedTo="0"/>
        <edge id="-1121976097#0" sampledSeconds="415.16" traveltime="9.34" overlapTraveltime="10.69" density="3.78" overlapDensity="4.26" laneDensity="3.78" occupancy="1.97" waitingTime="167.00" timeLoss="310.00" speed="3.01" speedRelative="0.22" departed="5" arrived="2" entered="35" left="38" laneChangedFrom="0" laneChangedTo="0" flow="40.96"/>
        <edge id="-1121976098" sampledSeconds="226.11" traveltime="3.44" overlapTraveltime="4.51" density="4.13" overlapDensity="5.27" laneDensity="4.13" occupancy="2.31" waitingTime="71.00" timeLoss="160.73" speed="3.87" speedRelative="0.28" departed="2" arrived="3" entered="51" left="50" laneChangedFrom="0" laneChangedTo="0" flow="57.61"/>
        <edge id="-1135059968#0" sampledSeconds="0.00" departed="0" arrived="0" entered="0" left="0" laneChangedFrom="0" laneChangedTo="0"/>
        <edge id="-1135059968#1" sampledSeconds="0.00" departed="0" arrived="0" entered="0" left="0" laneChangedFrom="0" laneChangedTo="0"/>
        <edge id="-1154579502" sampledSeconds="18.49" traveltime="9.97" overlapTraveltime="12.75" density="0.13" overlapDensity="0.18" laneDensity="0.13" occupancy="0.17" waitingTime="7.00" timeLoss="13.46" speed="3.15" speedRelative="0.23" departed="2" arrived="0" entered="0" left="2" laneChangedFrom="0" laneChangedTo="0" flow="1.52"/>
        <edge id="-1160006921#0" sampledSeconds="1807.58" traveltime="20.38" overlapTraveltime="21.30" density="2.04" overlapDensity="2.14" laneDensity="2.04" occupancy="1.12" waitingTime="317.00" timeLoss="899.72" speed="11.30" speedRelative="0.51" departed="5" arrived="2" entered="80" left="83" laneChangedFrom="0" laneChangedTo="0" flow="83.12"/>
        <edge id="-1160006921#1" sampledSeconds="965.50" traveltime="10.74" overlapTraveltime="11.69" density="2.31" overlapDensity="2.50" laneDensity="2.31" occupancy="1.37" waitingTime="89.00" timeLoss="549.25" speed="9.67" speedRelative="0.44" departed="2" arrived="3" entered="81" left="80" laneChangedFrom="0" laneChangedTo="0" flow="80.40"/>
        <edge id="-1160006921#2" sampledSeconds="797.96" traveltime="8.81" overlapTraveltime="9.73" density="2.47" overlapDensity="2.71" laneDensity="2.47" occupancy="1.55" waitingTime="110.00" timeLoss="475.55" speed="9.06" speedRelative="0.41" departed="4" arrived="2" entered="79" left="81" laneChangedFrom="0" laneChangedTo="0" flow="80.48"/>
        <edge id="-1164686614" sampledSeconds="109.10" traveltime="8.94" overlapTraveltime="9.66" density="1.23" overlapDensity="1.39" laneDensity="1.23" occupancy="0.71" waitingTime="53.00" timeLoss="93.89" speed="2.84" speedRelative="0.13" departed="7" arrived="0" entered="6" left="13" laneChangedFrom="0" laneChangedTo="0" flow="12.61"/>
        <edge id="-1165008314#0" sampledSeconds="0.00" departed="0" arrived="0" entered="0" left="0" laneChangedFrom="0" laneChangedTo="0"/>
        <edge id="-1165008314#1" sampledSeconds="0.00" departed="0" arrived="0" entered="0" left="0" laneChangedFrom="0" laneChangedTo="0"/>
        <edge id="-1165008315" sampledSeconds="0.00" departed="0" arrived="0" entered="0" left="0" laneChangedFrom="0" laneChangedTo="0"/>
        <edge id="-1175896817" sampledSeconds="280.38" traveltime="8.60" overlapTraveltime="9.51" density="0.83" overlapDensity="0.92" laneDensity="0.83" occupancy="0.42" waitingTime="0.00" timeLoss="78.72" speed="9.45" speedRelative="0.68" departed="8" arrived="0" entered="22" left="30" laneChangedFrom="0" laneChangedTo="0" flow="28.31"/>
        <edge id="-1177776606" sampledSeconds="65.16" traveltime="12.92" overlapTraveltime="13.74" density="0.23" overlapDensity="0.25" laneDensity="0.23" occupancy="0.09" waitingTime="20.00" timeLoss="37.05" speed="5.57" speedRelative="0.40" departed="5" arrived="0" entered="0" left="5" laneChangedFrom="0" laneChangedTo="0" flow="4.62"/>
        <edge id="-1177915922" sampledSeconds="0.00" departed="0" arrived="0" entered="0" left="0" laneChangedFrom="0" laneChangedTo="0"/>
        <edge id="-1177915923" sampledSeconds="0.00" departed="0" arrived="0" entered="0" left="0" laneChangedFrom="0" laneChangedTo="0"/>
        <edge id="-1177915924" sampledSeconds="779.84" traveltime="122.92" overlapTraveltime="122.44" density="3.86" overlapDensity="3.91" laneDensity="3.86" occupancy="1.72" waitingTime="592.00" timeLoss="648.56" speed="0.49" speedRelative="0.18" departed="7" arrived="0" entered="0" left="7" laneChangedFrom="0" laneChangedTo="0" teleported="1" flow="6.79"/>
        <edge id="-1178096191" sampledSeconds="16.86" traveltime="5.26" overlapTraveltime="6.09" density="0.07" overlapDensity="0.09" laneDensity="0.07" occupancy="0.04" waitingTime="0.00" timeLoss="4.35" speed="9.74" speedRelative="0.70" departed="3" arrived="0" entered="0" left="3" laneChangedFrom="0" laneChangedTo="0" flow="2.55"/>
        <edge id="-1178097064" sampledSeconds="345.44" traveltime="48.85" overlapTraveltime="47.07" density="3.37" overlapDensity="3.43" laneDensity="3.37" occupancy="0.82" waitingTime="306.00" timeLoss="326.60" speed="0.65" speedRelative="0.05" departed="8" arrived="0" entered="0" left="8" laneChangedFrom="0" laneChangedTo="0" flow="7.83"/>
        <edge id="-1187072584" sampledSeconds="0.00" departed="0" arrived="0" entered="0" left="0" laneChangedFrom="0" laneChangedTo="0"/>
        <edge id="-1187073671" sampledSeconds="0.00" departed="0" arrived="0" entered="0" left="0" laneChangedFrom="0" laneChangedTo="0"/>
        <edge id="-1187096039" sampledSeconds="0.00" departed="0" arrived="0" entered="0" left="0" laneChangedFrom="0" laneChangedTo="0"/>
        <edge id="-1187096040" sampledSeconds="0.00" departed="0" arrived="0" entered="0" left="0" laneChangedFrom="0" laneChangedTo="0"/>
        <edge id="-1187096042#0" sampledSeconds="193.35" traveltime="7.60" overlapTraveltime="9.05" density="4.02" overlapDensity="4.64" laneDensity="4.02" occupancy="1.67" waitingTime="33.00" timeLoss="91.05" speed="1.76" speedRelative="0.63" departed="8" arrived="7" entered="17" left="18" laneChangedFrom="0" laneChangedTo="0" flow="25.37"/>
        <edge id="-1187096042#1" sampledSeconds="58.02" traveltime="14.64" overlapTraveltime="16.80" density="0.55" overlapDensity="0.63" laneDensity="0.55" occupancy="0.23" waitingTime="7.00" timeLoss="22.03" speed="1.74" speedRelative="0.63" departed="4" arrived="0" entered="0" left="4" laneChangedFrom="0" laneChangedTo="0" flow="3.44"/>
        <edge id="-1187096043" sampledSeconds="24.97" traveltime="25.94" overlapTraveltime="20.26" density="0.67" overlapDensity="0.84" laneDensity="0.67" occupancy="0.38" waitingTime="14.00" timeLoss="18.88" speed="0.66" speedRelative="0.24" departed="2" arrived="0" entered="0" left="2" laneChangedFrom="0" laneChangedTo="0" flow="1.58"/>
        <edge id="-1187111140#0" sampledSeconds="0.00" departed="0" arrived="0" entered="0" left="0" laneChangedFrom="0" laneChangedTo="0"/>
        <edge id="-1187111141" sampledSeconds="0.00" departed="0" arrived="0" entered="0" left="0" laneChangedFrom="0" laneChangedTo="0"/>
        <edge id="-1187127235#0" sampledSeconds="0.00" departed="0" arrived="0" entered="0" left="0" laneChangedFrom="0" laneChangedTo="0"/>
        <edge id="-1187127235#1" sampledSeconds="0.00" departed="0" arrived="0" entered="0" left="0" laneChangedFrom="0" laneChangedTo="0"/>
        <edge id="-1187127235#2" sampledSeconds="0.00" departed="0" arrived="0" entered="0" left="0" laneChangedFrom="0" laneChangedTo="0"/>
        <edge id="-1187127236" sampledSeconds="0.00" departed="0" arrived="0" entered="0" left="0" laneChangedFrom="0" laneChangedTo="0"/>
        <edge id="-1187182914" sampledSeconds="0.00" departed="0" arrived="0" entered="0" left="0" laneChangedFrom="0" laneChangedTo="0"/>
        <edge id="-1187182915#0" sampledSeconds="0.00" departed="0" arrived="0" entered="0" left="0" laneChangedFrom="0" laneChangedTo="0"/>
        <edge id="-1187182915#1" sampledSeconds="0.00" departed="0" arrived="0" entered="0" left="0" laneChangedFrom="0" laneChangedTo="0"/>
        <edge id="-1187189708" sampledSeconds="0.00" departed="0" arrived="0" entered="0" left="0" laneChangedFrom="0" laneChangedTo="0"/>
        <edge id="-1187191679" sampledSeconds="0.00" departed="0" arrived="0" entered="0" left="0" laneChangedFrom="0" laneChangedTo="0"/>
        <edge id="-1187191761" sampledSeconds="0.00" departed="0" arrived="0" entered="0" left="0" laneChangedFrom="0" laneChangedTo="0"/>
        <edge id="-1190739880#0" sampledSeconds="63.69" traveltime="21.15" overlapTraveltime="22.19" density="0.42" overlapDensity="0.44" laneDensity="0.42" occupancy="0.13" waitingTime="4.00" timeLoss="20.14" speed="1.95" speedRelative="0.70" departed="1" arrived="2" entered="2" left="1" laneChangedFrom="0" laneChangedTo="0" flow="2.95"/>
        <edge id="-1190739880#1" sampledSeconds="193.48" traveltime="12.68" overlapTraveltime="14.00" density="2.21" overlapDensity="2.42" laneDensity="2.21" occupancy="0.59" waitingTime="22.00" timeLoss="67.57" speed="1.78" speedRelative="0.64" departed="1" arrived="1" entered="13" left="13" laneChangedFrom="0" laneChangedTo="0" flow="14.13"/>
        <edge id="-1190739881" sampledSeconds="104.19" traveltime="15.36" overlapTraveltime="17.71" density="1.05" overlapDensity="1.24" laneDensity="1.05" occupancy="0.49" waitingTime="13.00" timeLoss="40.64" speed="1.56" speedRelative="0.56" departed="7" arrived="0" entered="0" left="7" laneChangedFrom="0" laneChangedTo="0" flow="5.86"/>
        <edge id="-1190740105" sampledSeconds="77.21" traveltime="18.87" overlapTraveltime="21.17" density="0.46" overlapDensity="0.47" laneDensity="0.46" occupancy="0.24" waitingTime="0.00" timeLoss="13.60" speed="2.43" speedRelative="0.87" departed="0" arrived="4" entered="4" left="0" laneChangedFrom="0" laneChangedTo="0" flow="4.00"/>
        <edge id="-1190741184" sampledSeconds="858.83" traveltime="145.61" overlapTraveltime="157.28" density="8.54" overlapDensity="8.59" laneDensity="8.54" occupancy="4.67" waitingTime="825.00" timeLoss="844.56" speed="0.21" speedRelative="0.02" departed="7" arrived="0" entered="0" left="6" laneChangedFrom="0" laneChangedTo="0" teleported="1" flow="6.49"/>
        <edge id="-1190741791" sampledSeconds="0.00" departed="0" arrived="0" entered="0" left="0" laneChangedFrom="0" laneChangedTo="0"/>
        <edge id="-1190742076#1" sampledSeconds="84.70" traveltime="22.84" overlapTraveltime="22.71" density="1.48" overlapDensity="1.57" laneDensity="1.48" occupancy="0.76" waitingTime="65.00" timeLoss="78.97" speed="0.88" speedRelative="0.06" departed="5" arrived="0" entered="0" left="5" laneChangedFrom="0" laneChangedTo="0" flow="4.66"/>
        <edge id="-1190742077" sampledSeconds="36.86" traveltime="10.09" overlapTraveltime="10.75" density="0.45" overlapDensity="0.48" laneDensity="0.45" occupancy="0.16" waitingTime="23.00" timeLoss="30.78" speed="2.33" speedRelative="0.17" departed="4" arrived="0" entered="0" left="4" laneChangedFrom="0" laneChangedTo="0" flow="3.75"/>
        <edge id="-1192062323" sampledSeconds="0.00" departed="0" arrived="0" entered="0" left="0" laneChangedFrom="0" laneChangedTo="0"/>
        <edge id="-1192064613" sampledSeconds="0.00" departed="0" arrived="0" entered="0" left="0" laneChangedFrom="0" laneChangedTo="0"/>
        <edge id="-1192068859" sampledSeconds="20.94" traveltime="6.53" overlapTraveltime="7.59" density="0.08" overlapDensity="0.09" laneDensity="0.08" occupancy="0.05" waitingTime="0.00" timeLoss="4.00" speed="9.41" speedRelative="0.68" departed="3" arrived="0" entered="0" left="3" laneChangedFrom="0" laneChangedTo="0" flow="2.55"/>
        <edge id="-1192068860" sampledSeconds="42.82" traveltime="9.80" overlapTraveltime="11.60" density="0.12" overlapDensity="0.14" laneDensity="0.12" occupancy="0.09" waitingTime="4.00" timeLoss="13.52" speed="8.10" speedRelative="0.58" departed="4" arrived="0" entered="0" left="4" laneChangedFrom="0" laneChangedTo="0" flow="3.40"/>
        <edge id="-1192071065" sampledSeconds="41.16" traveltime="5.57" overlapTraveltime="6.14" density="0.19" overlapDensity="0.20" laneDensity="0.19" occupancy="0.11" waitingTime="0.00" timeLoss="9.62" speed="10.55" speedRelative="0.76" departed="0" arrived="7" entered="7" left="0" laneChangedFrom="0" laneChangedTo="0" flow="7.07"/>
        <edge id="-1192084956#0" sampledSeconds="0.00" departed="0" arrived="0" entered="0" left="0" laneChangedFrom="0" laneChangedTo="0"/>
        <edge id="-1192084956#1" sampledSeconds="0.00" departed="0" arrived="0" entered="0" left="0" laneChangedFrom="0" laneChangedTo="0"/>
        <edge id="-1192084957" sampledSeconds="0.00" departed="0" arrived="0" entered="0" left="0" laneChangedFrom="0" laneChangedTo="0"/>
        <edge id="-1192086372" sampledSeconds="0.00" departed="0" arrived="0" entered="0" left="0" laneChangedFrom="0" laneChangedTo="0"/>
        <edge id="-1192086373" sampledSeconds="0.00" departed="0" arrived="0" entered="0" left="0" laneChangedFrom="0" laneChangedTo="0"/>
        <edge id="-1192347436" sampledSeconds="0.00" departed="0" arrived="0" entered="0" left="0" laneChangedFrom="0" laneChangedTo="0"/>
        <edge id="-1192348412" sampledSeconds="0.00" departed="0" arrived="0" entered="0" left="0" laneChangedFrom="0" laneChangedTo="0"/>
        <edge id="-1192352137" sampledSeconds="0.00" departed="0" arrived="0" entered="0" left="0" laneChangedFrom="0" laneChangedTo="0"/>
        <edge id="-1192359549" sampledSeconds="0.00" departed="0" arrived="0" entered="0" left="0" laneChangedFrom="0" laneChangedTo="0"/>
        <edge id="-1192360898" sampledSeconds="0.00" departed="0" arrived="0" entered="0" left="0" laneChangedFrom="0" laneChangedTo="0"/>
        <edge id="-1192361804#1" sampledSeconds="0.00" departed="0" arrived="0" entered="0" left="0" laneChangedFrom="0" laneChangedTo="0"/>
        <edge id="-1192361805" sampledSeconds="0.00" departed="0" arrived="0" entered="0" left="0" laneChangedFrom="0" laneChangedTo="0"/>
        <edge id="-1192362912" sampledSeconds="0.00" departed="0" arrived="0" entered="0" left="0" laneChangedFrom="0" laneChangedTo="0"/>
        <edge id="-1192364508" sampledSeconds="0.00" departed="0" arrived="0" entered="0" left="0" laneChangedFrom="0" laneChangedTo="0"/>
        <edge id="-1192553393" sampledSeconds="0.00" departed="0" arrived="0" entered="0" left="0" laneChangedFrom="0" laneChangedTo="0"/>
        <edge id="-1192595035" sampledSeconds="31.62" traveltime="15.47" overlapTraveltime="15.92" density="0.06" overlapDensity="0.06" laneDensity="0.06" occupancy="0.03" waitingTime="0.00" timeLoss="3.20" speed="10.06" speedRelative="0.72" departed="0" arrived="2" entered="2" left="0" laneChangedFrom="0" laneChangedTo="0" flow="2.01"/>
        <edge id="-1192595036#0" sampledSeconds="0.00" departed="0" arrived="0" entered="0" left="0" laneChangedFrom="0" laneChangedTo="0"/>
        <edge id="-1192595036#1" sampledSeconds="25.51" traveltime="3.30" overlapTraveltime="3.88" density="0.24" overlapDensity="0.27" laneDensity="0.24" occupancy="0.09" waitingTime="0.00" timeLoss="8.52" speed="7.61" speedRelative="0.55" departed="2" arrived="2" entered="5" left="5" laneChangedFrom="0" laneChangedTo="0" flow="6.65"/>
        <edge id="-1195576992#0" sampledSeconds="5.79" traveltime="2.69" overlapTraveltime="2.92" density="0.04" overlapDensity="0.04" laneDensity="0.04" occupancy="0.01" waitingTime="0.00" timeLoss="1.83" speed="14.61" speedRelative="0.66" departed="0" arrived="2" entered="2" left="0" laneChangedFrom="0" laneChangedTo="0" flow="2.03"/>
        <edge id="-1195576992#1" sampledSeconds="1976.27" traveltime="19.09" overlapTraveltime="20.25" density="3.81" overlapDensity="4.03" laneDensity="3.81" occupancy="2.16" waitingTime="696.00" timeLoss="1275.10" speed="7.00" speedRelative="0.31" departed="4" arrived="4" entered="94" left="94" laneChangedFrom="0" laneChangedTo="0" flow="96.05"/>
        <edge id="-1195576992#10" sampledSeconds="227.90" traveltime="5.34" overlapTraveltime="5.82" density="1.21" overlapDensity="1.32" laneDensity="1.21" occupancy="0.60" waitingTime="42.00" timeLoss="133.73" speed="9.11" speedRelative="0.41" departed="6" arrived="2" entered="34" left="38" laneChangedFrom="0" laneChangedTo="0" flow="39.71"/>
        <edge id="-1195576992#11" sampledSeconds="276.40" traveltime="7.84" overlapTraveltime="8.47" density="0.94" overlapDensity="1.01" laneDensity="0.94" occupancy="0.49" waitingTime="42.00" timeLoss="156.61" speed="9.55" speedRelative="0.43" departed="2" arrived="0" entered="32" left="34" laneChangedFrom="0" laneChangedTo="0" flow="32.42"/>
        <edge id="-1195576992#2" sampledSeconds="636.34" traveltime="5.88" overlapTraveltime="6.93" density="8.42" overlapDensity="9.67" laneDensity="8.42" occupancy="5.02" waitingTime="257.00" timeLoss="535.14" speed="3.50" speedRelative="0.16" departed="6" arrived="2" entered="90" left="94" laneChangedFrom="0" laneChangedTo="0" flow="106.01"/>
        <edge id="-1195576992#4" sampledSeconds="254.96" traveltime="0.37" overlapTraveltime="3.65" density="56.10" overlapDensity="212.77" laneDensity="56.10" occupancy="6.98" waitingTime="150.48" timeLoss="232.96" speed="1.58" speedRelative="0.07" departed="9" arrived="4" entered="71" left="76" laneChangedFrom="0" laneChangedTo="0" flow="318.61"/>
        <edge id="-1195576992#5" sampledSeconds="248.87" traveltime="1.77" overlapTraveltime="4.22" density="5.51" overlapDensity="11.41" laneDensity="5.51" occupancy="3.60" waitingTime="113.00" timeLoss="214.53" speed="3.07" speedRelative="0.14" departed="8" arrived="2" entered="65" left="71" laneChangedFrom="0" laneChangedTo="0" flow="60.83"/>
        <edge id="-1195576992#6" sampledSeconds="568.85" traveltime="10.33" overlapTraveltime="11.31" density="1.86" overlapDensity="2.03" laneDensity="1.86" occupancy="1.05" waitingTime="177.00" timeLoss="372.23" speed="7.37" speedRelative="0.33" departed="5" arrived="1" entered="46" left="50" laneChangedFrom="0" laneChangedTo="0" flow="49.43"/>
        <edge id="-1195576992#7" sampledSeconds="107.69" traveltime="1.92" overlapTraveltime="2.38" density="1.14" overlapDensity="1.38" laneDensity="1.14" occupancy="0.61" waitingTime="0.00" timeLoss="51.59" speed="11.49" speedRelative="0.52" departed="7" arrived="2" entered="41" left="46" laneChangedFrom="0" laneChangedTo="0" flow="47.21"/>
        <edge id="-1195576992#9" sampledSeconds="721.45" traveltime="16.84" overlapTraveltime="17.65" density="0.83" overlapDensity="0.87" laneDensity="0.83" occupancy="0.42" waitingTime="98.00" timeLoss="284.47" speed="13.37" speedRelative="0.60" departed="3" arrived="0" entered="38" left="41" laneChangedFrom="0" laneChangedTo="0" flow="39.90"/>
        <edge id="-1206809261#0" sampledSeconds="72.74" traveltime="4.89" overlapTraveltime="5.72" density="1.06" overlapDensity="1.24" laneDensity="1.06" occupancy="0.46" waitingTime="16.00" timeLoss="50.84" speed="3.56" speedRelative="0.26" departed="7" arrived="3" entered="7" left="11" laneChangedFrom="0" laneChangedTo="0" flow="13.56"/>
        <edge id="-1206809261#1" sampledSeconds="50.03" traveltime="16.42" overlapTraveltime="11.77" density="1.59" overlapDensity="1.96" laneDensity="1.59" occupancy="0.79" waitingTime="28.00" timeLoss="44.65" speed="0.98" speedRelative="0.07" departed="7" arrived="0" entered="0" left="7" laneChangedFrom="0" laneChangedTo="0" flow="5.63"/>
        <edge id="-1206852403" sampledSeconds="0.00" departed="0" arrived="0" entered="0" left="0" laneChangedFrom="0" laneChangedTo="0"/>
        <edge id="-1222415622" sampledSeconds="0.00" departed="0" arrived="0" entered="0" left="0" laneChangedFrom="0" laneChangedTo="0"/>
        <edge id="-1222415624" sampledSeconds="0.00" departed="0" arrived="0" entered="0" left="0" laneChangedFrom="0" laneChangedTo="0"/>
        <edge id="-1305503506" sampledSeconds="874.42" traveltime="8.25" overlapTraveltime="10.17" density="11.31" overlapDensity="13.35" laneDensity="11.31" occupancy="7.55" waitingTime="440.00" timeLoss="724.90" speed="2.45" speedRelative="0.11" departed="10" arrived="2" entered="83" left="91" laneChangedFrom="0" laneChangedTo="0" flow="99.73"/>
        <edge id="-1314561460" sampledSeconds="1442.34" traveltime="10.85" overlapTraveltime="12.11" density="34.14" overlapDensity="38.12" laneDensity="34.14" occupancy="16.53" waitingTime="915.00" timeLoss="1282.11" speed="1.30" speedRelative="0.06" departed="0" arrived="0" entered="119" left="119" laneChangedFrom="0" laneChangedTo="0" flow="160.06"/>
        <edge id="-1431976928#0" sampledSeconds="127.95" traveltime="7.57" overlapTraveltime="8.16" density="0.46" overlapDensity="0.50" laneDensity="0.46" occupancy="0.21" waitingTime="0.00" timeLoss="34.15" speed="9.32" speedRelative="0.67" departed="6" arrived="1" entered="10" left="15" laneChangedFrom="0" laneChangedTo="0" flow="15.49"/>
        <edge id="-1431976928#1" sampledSeconds="121.49" traveltime="23.74" overlapTraveltime="24.52" density="0.12" overlapDensity="0.13" laneDensity="0.12" occupancy="0.06" waitingTime="3.00" timeLoss="21.52" speed="10.87" speedRelative="0.78" departed="2" arrived="1" entered="3" left="4" laneChangedFrom="0" laneChangedTo="0" flow="4.88"/>
        <edge id="-1431976929#0" sampledSeconds="280.56" traveltime="6.35" overlapTraveltime="7.63" density="2.73" overlapDensity="3.24" laneDensity="2.73" occupancy="1.52" waitingTime="73.00" timeLoss="190.63" speed="3.88" speedRelative="0.28" departed="3" arrived="5" entered="35" left="33" laneChangedFrom="0" laneChangedTo="0" flow="38.08"/>
        <edge id="-1431976929#1" sampledSeconds="140.48" traveltime="7.71" overlapTraveltime="9.53" density="1.67" overlapDensity="2.07" laneDensity="1.67" occupancy="1.20" waitingTime="39.00" timeLoss="112.93" speed="2.70" speedRelative="0.19" departed="9" arrived="0" entered="8" left="17" laneChangedFrom="0" laneChangedTo="0" flow="16.24"/>
        <edge id="-1431976930#0" sampledSeconds="25.94" traveltime="6.28" overlapTraveltime="6.84" density="0.09" overlapDensity="0.09" laneDensity="0.09" occupancy="0.06" waitingTime="0.00" timeLoss="1.21" speed="12.91" speedRelative="0.93" departed="0" arrived="4" entered="4" left="0" laneChangedFrom="0" laneChangedTo="0" flow="4.00"/>
        <edge id="-1431976930#1" sampledSeconds="131.77" traveltime="3.89" overlapTraveltime="5.00" density="1.61" overlapDensity="2.06" laneDensity="1.61" occupancy="0.86" waitingTime="27.00" timeLoss="75.68" speed="4.55" speedRelative="0.33" departed="7" arrived="6" entered="21" left="22" laneChangedFrom="0" laneChangedTo="0" flow="26.47"/>
        <edge id="-1431976931" sampledSeconds="6774.01" traveltime="57.85" overlapTraveltime="59.27" density="34.73" overlapDensity="35.42" laneDensity="34.73" occupancy="18.43" waitingTime="5213.00" timeLoss="6241.42" speed="0.99" speedRelative="0.07" departed="9" arrived="4" entered="111" left="109" laneChangedFrom="0" laneChangedTo="0" flow="123.30"/>
        <edge id="-1431978404#0" sampledSeconds="2829.43" traveltime="20.16" overlapTraveltime="23.82" density="63.84" overlapDensity="73.38" laneDensity="63.84" occupancy="30.62" waitingTime="2356.00" timeLoss="2700.85" speed="0.67" speedRelative="0.03" departed="5" arrived="2" entered="121" left="122" laneChangedFrom="0" laneChangedTo="0" flow="153.88"/>
        <edge id="-1431978404#1" sampledSeconds="3539.01" traveltime="29.36" overlapTraveltime="31.62" density="44.45" overlapDensity="46.46" laneDensity="44.45" occupancy="24.47" waitingTime="2727.00" timeLoss="3384.19" speed="0.85" speedRelative="0.04" departed="6" arrived="3" entered="113" left="113" laneChangedFrom="0" laneChangedTo="0" flow="136.14"/>
        <edge id="-1431978404#2" sampledSeconds="2646.35" traveltime="25.80" overlapTraveltime="27.49" density="40.21" overlapDensity="41.77" laneDensity="40.21" occupancy="21.26" waitingTime="2126.00" timeLoss="2538.24" speed="0.84" speedRelative="0.04" departed="3" arrived="1" entered="98" left="100" laneChangedFrom="0" laneChangedTo="0" flow="121.49"/>
        <edge id="-1431978404#3" sampledSeconds="5532.77" traveltime="52.75" overlapTraveltime="57.24" density="89.55" overlapDensity="94.99" laneDensity="89.55" occupancy="40.25" waitingTime="4995.00" timeLoss="5435.24" speed="0.37" speedRelative="0.02" departed="8" arrived="3" entered="95" left="99" laneChangedFrom="0" laneChangedTo="0" teleported="1" flow="120.74"/>
        <edge id="-1451563330" sampledSeconds="0.00" departed="0" arrived="0" entered="0" left="0" laneChangedFrom="0" laneChangedTo="0"/>
        <edge id="-1451563332" sampledSeconds="0.00" departed="0" arrived="0" entered="0" left="0" laneChangedFrom="0" laneChangedTo="0"/>
        <edge id="-151770988#0" sampledSeconds="140.80" traveltime="6.31" overlapTraveltime="7.34" density="0.63" overlapDensity="0.72" laneDensity="0.63" occupancy="0.42" waitingTime="0.00" timeLoss="48.28" speed="8.31" speedRelative="0.60" departed="5" arrived="5" entered="15" left="15" laneChangedFrom="0" laneChangedTo="0" flow="18.71"/>
        <edge id="-151770988#2" sampledSeconds="1405.44" traveltime="19.13" overlapTraveltime="20.50" density="10.47" overlapDensity="11.24" laneDensity="10.47" occupancy="5.76" waitingTime="858.00" timeLoss="1193.08" speed="1.96" speedRelative="0.14" departed="4" arrived="3" entered="65" left="66" laneChangedFrom="0" laneChangedTo="0" flow="73.89"/>