<?xml version="1.0" encoding="UTF-8"?>

<!-- generated on 2025-12-21T13:22:42.521885+05:30 by Eclipse SUMO GUI 1.25.0
<sumoConfiguration xmlns:xsi="http://www.w3.org/2001/XMLSchema-instance" xsi:noNamespaceSchemaLocation="http://sumo.dlr.de/xsd/sumoConfiguration.xsd">

    <input>
        <net-file value="sumo_files/dy/osm_tls.net.xml.gz"/>
        <route-files value="sumo_files/dy/   osm.passenger.trips_scaled.xml,sumo_files/dy/   osm.motorcycle.trips_scaled.xml,sumo_files/dy/   osm.bus.trips_scaled.xml,sumo_files/dy/   osm.truck.trips_scaled.xml"/>
        <additional-files value="sumo_files/dy/osm.poly.xml.gz,sumo_files/dy/output.add.xml,sumo_files/dy/rl_traffic_lights.add.xml"/>
    </input>

    <output>
        <tripinfo-output value="sumo_files/dy/tripinfos.xml"/>
        <statistic-output value="sumo_files/dy/stats.xml"/>
    </output>

    <time>
        <step-length value="1.0"/>
    </time>

    <processing>
        <ignore-route-errors value="true"/>
        <time-to-teleport value="300"/>
        <tls.actuated.jam-threshold value="30"/>
    </processing>

    <routing>
        <device.rerouting.adaptation-steps value="18"/>
        <device.rerouting.adaptation-interval value="10"/>
    </routing>

    <report>
        <verbose value="true"/>
        <no-warnings value="true"/>
        <duration-log.disable value="true"/>
        <duration-log.statistics value="true"/>
        <no-step-log value="true"/>
    </report>

    <traci_server>
        <remote-port value="54195"/>
    </traci_server>

    <gui_only>
        <gui-settings-file value="sumo_files/dy/osm.view.xml"/>
    </gui_only>

</sumoConfiguration>
-->

<meandata xmlns:xsi="http://www.w3.org/2001/XMLSchema-instance" xsi:noNamespaceSchemaLocation="http://sumo.dlr.de/xsd/meandata_file.xsd">
    <interval begin="0.00" end="3600.00" id="wizard_example">
        <edge id="-1030346760" sampledSeconds="0.00" departed="0" arrived="0" entered="0" left="0" laneChangedFrom="0" laneChangedTo="0"/>
        <edge id="-1047588330" sampledSeconds="0.00" departed="0" arrived="0" entered="0" left="0" laneChangedFrom="0" laneChangedTo="0"/>
        <edge id="-1053903048" sampledSeconds="0.00" departed="0" arrived="0" entered="0" left="0" laneChangedFrom="0" laneChangedTo="0"/>
        <edge id="-1053903050#0" sampledSeconds="0.00" departed="0" arrived="0" entered="0" left="0" laneChangedFrom="0" laneChangedTo="0"/>
        <edge id="-1053903050#1" sampledSeconds="0.00" departed="0" arrived="0" entered="0" left="0" laneChangedFrom="0" laneChangedTo="0"/>
        <edge id="-1063809123" sampledSeconds="0.00" departed="0" arrived="0" entered="0" left="0" laneChangedFrom="0" laneChangedTo="0"/>
        <edge id="-1064522846" sampledSeconds="0.00" departed="0" arrived="0" entered="0" left="0" laneChangedFrom="0" laneChangedTo="0"/>
        <edge id="-1075269720" sampledSeconds="0.00" departed="0" arrived="0" entered="0" left="0" laneChangedFrom="0" laneChangedTo="0"/>
        <edge id="-1078958802#1" sampledSeconds="1372.82" traveltime="28.58" overlapTraveltime="40.66" density="22.29" overlapDensity="33.90" laneDensity="22.29" occupancy="12.28" waitingTime="1267.00" timeLoss="1345.22" speed="0.38" speedRelative="0.02" departed="7" arrived="1" entered="29" left="34" laneChangedFrom="0" laneChangedTo="0" flow="30.41"/>
        <edge id="-1090914679" sampledSeconds="0.00" departed="0" arrived="0" entered="0" left="0" laneChangedFrom="0" laneChangedTo="0"/>
        <edge id="-1092624647" sampledSeconds="0.00" departed="0" arrived="0" entered="0" left="0" laneChangedFrom="0" laneChangedTo="0"/>
        <edge id="-1105148129" sampledSeconds="0.00" departed="0" arrived="0" entered="0" left="0" laneChangedFrom="0" laneChangedTo="0"/>
        <edge id="-1105791652" sampledSeconds="1342.78" traveltime="68.38" overlapTraveltime="69.61" density="2.87" overlapDensity="2.92" laneDensity="2.87" occupancy="1.07" waitingTime="149.00" timeLoss="457.18" speed="1.89" speedRelative="0.68" departed="2" arrived="2" entered="18" left="17" laneChangedFrom="0" laneChangedTo="0" flow="19.54"/>
        <edge id="-1107314440" sampledSeconds="0.00" departed="0" arrived="0" entered="0" left="0" laneChangedFrom="0" laneChangedTo="0"/>
        <edge id="-1111931884" sampledSeconds="0.00" departed="0" arrived="0" entered="0" left="0" laneChangedFrom="0" laneChangedTo="0"/>
        <edge id="-1116936513" sampledSeconds="0.00" departed="0" arrived="0" entered="0" left="0" laneChangedFrom="0" laneChangedTo="0"/>
        <edge id="-1116936514" sampledSeconds="0.00" departed="0" arrived="0" entered="0" left="0" laneChangedFrom="0" laneChangedTo="0"/>
        <edge id="-1121976097#0" sampledSeconds="3567.93" traveltime="134.68" overlapTraveltime="138.86" density="36.41" overlapDensity="36.65" laneDensity="36.41" occupancy="15.97" waitingTime="3378.00" timeLoss="3498.41" speed="0.23" speedRelative="0.02" departed="5" arrived="0" entered="22" left="27" laneChangedFrom="0" laneChangedTo="0" teleported="2" flow="29.66"/>
        <edge id="-1121976098" sampledSeconds="3506.88" traveltime="99.50" overlapTraveltime="114.02" density="80.77" overlapDensity="81.72" laneDensity="80.77" occupancy="48.78" waitingTime="3356.00" timeLoss="3462.37" speed="0.17" speedRelative="0.01" departed="2" arrived="0" entered="47" left="47" laneChangedFrom="0" laneChangedTo="0" teleported="2" flow="49.28"/>
        <edge id="-1135059968#0" sampledSeconds="0.00" departed="0" arrived="0" entered="0" left="0" laneChangedFrom="0" laneChangedTo="0"/>
        <edge id="-1135059968#1" sampledSeconds="0.00" departed="0" arrived="0" entered="0" left="0" laneChangedFrom="0" laneChangedTo="0"/>
        <edge id="-1154579502" sampledSeconds="6.55" traveltime="2.91" overlapTraveltime="4.30" density="0.04" overlapDensity="0.06" laneDensity="0.04" occupancy="0.04" waitingTime="0.00" timeLoss="1.35" speed="8.90" speedRelative="0.64" departed="2" arrived="0" entered="0" left="2" laneChangedFrom="0" laneChangedTo="0" flow="1.25"/>
        <edge id="-1160006921#0" sampledSeconds="1292.45" traveltime="28.15" overlapTraveltime="28.91" density="1.49" overlapDensity="1.53" laneDensity="1.49" occupancy="0.97" waitingTime="655.00" timeLoss="806.24" speed="8.36" speedRelative="0.38" departed="5" arrived="2" entered="40" left="43" laneChangedFrom="0" laneChangedTo="0" flow="44.88"/>
        <edge id="-1160006921#1" sampledSeconds="463.71" traveltime="10.63" overlapTraveltime="10.95" density="1.17" overlapDensity="1.20" laneDensity="1.17" occupancy="0.58" waitingTime="110.00" timeLoss="248.38" speed="10.25" speedRelative="0.46" departed="2" arrived="2" entered="41" left="40" laneChangedFrom="0" laneChangedTo="0" flow="43.02"/>
        <edge id="-1160006921#2" sampledSeconds="2463.21" traveltime="59.63" overlapTraveltime="60.94" density="8.20" overlapDensity="8.35" laneDensity="8.20" occupancy="4.89" waitingTime="1998.00" timeLoss="2302.72" speed="1.44" speedRelative="0.06" departed="4" arrived="0" entered="37" left="41" laneChangedFrom="0" laneChangedTo="0" flow="42.54"/>
        <edge id="-1164686614" sampledSeconds="364.76" traveltime="44.96" overlapTraveltime="42.29" density="4.48" overlapDensity="4.63" laneDensity="4.48" occupancy="2.03" waitingTime="314.00" timeLoss="351.33" speed="0.62" speedRelative="0.03" departed="7" arrived="0" entered="3" left="10" laneChangedFrom="0" laneChangedTo="0" flow="10.07"/>
        <edge id="-1165008314#0" sampledSeconds="0.00" departed="0" arrived="0" entered="0" left="0" laneChangedFrom="0" laneChangedTo="0"/>
        <edge id="-1165008314#1" sampledSeconds="0.00" departed="0" arrived="0" entered="0" left="0" laneChangedFrom="0" laneChangedTo="0"/>
        <edge id="-1165008315" sampledSeconds="0.00" departed="0" arrived="0" entered="0" left="0" laneChangedFrom="0" laneChangedTo="0"/>
        <edge id="-1175896817" sampledSeconds="259.15" traveltime="8.51" overlapTraveltime="9.43" density="0.77" overlapDensity="0.85" laneDensity="0.77" occupancy="0.39" waitingTime="0.00" timeLoss="71.99" speed="9.54" speedRelative="0.69" departed="8" arrived="0" entered="20" left="28" laneChangedFrom="0" laneChangedTo="0" flow="26.35"/>
        <edge id="-1177776606" sampledSeconds="666.63" traveltime="141.83" overlapTraveltime="141.91" density="2.52" overlapDensity="2.55" laneDensity="2.52" occupancy="0.98" waitingTime="619.00" timeLoss="639.10" speed="0.54" speedRelative="0.04" departed="5" arrived="0" entered="0" left="5" laneChangedFrom="0" laneChangedTo="0" teleported="1" flow="4.90"/>
        <edge id="-1177915922" sampledSeconds="0.00" departed="0" arrived="0" entered="0" left="0" laneChangedFrom="0" laneChangedTo="0"/>
        <edge id="-1177915923" sampledSeconds="0.00" departed="0" arrived="0" entered="0" left="0" laneChangedFrom="0" laneChangedTo="0"/>
        <edge id="-1177915924" sampledSeconds="1109.35" traveltime="176.33" overlapTraveltime="177.60" density="5.52" overlapDensity="5.56" laneDensity="5.52" occupancy="2.57" waitingTime="925.00" timeLoss="978.80" speed="0.34" speedRelative="0.12" departed="7" arrived="0" entered="0" left="7" laneChangedFrom="0" laneChangedTo="0" teleported="2" flow="6.72"/>
        <edge id="-1178096191" sampledSeconds="100.35" traveltime="35.94" overlapTraveltime="35.09" density="0.50" overlapDensity="0.51" laneDensity="0.50" occupancy="0.13" waitingTime="83.00" timeLoss="87.97" speed="1.64" speedRelative="0.12" departed="3" arrived="0" entered="0" left="3" laneChangedFrom="0" laneChangedTo="0" flow="2.93"/>
        <edge id="-1178097064" sampledSeconds="1728.48" traveltime="250.93" overlapTraveltime="261.04" density="17.11" overlapDensity="17.15" laneDensity="17.11" occupancy="6.67" waitingTime="1677.00" timeLoss="1711.61" speed="0.12" speedRelative="0.01" departed="8" arrived="0" entered="0" left="8" laneChangedFrom="0" laneChangedTo="0" teleported="2" flow="7.52"/>
        <edge id="-1187072584" sampledSeconds="0.00" departed="0" arrived="0" entered="0" left="0" laneChangedFrom="0" laneChangedTo="0"/>
        <edge id="-1187073671" sampledSeconds="0.00" departed="0" arrived="0" entered="0" left="0" laneChangedFrom="0" laneChangedTo="0"/>
        <edge id="-1187096039" sampledSeconds="0.00" departed="0" arrived="0" entered="0" left="0" laneChangedFrom="0" laneChangedTo="0"/>
        <edge id="-1187096040" sampledSeconds="0.00" departed="0" arrived="0" entered="0" left="0" laneChangedFrom="0" laneChangedTo="0"/>
        <edge id="-1187096042#0" sampledSeconds="1115.73" traveltime="57.19" overlapTraveltime="59.80" density="26.10" overlapDensity="26.76" laneDensity="26.10" occupancy="12.03" waitingTime="963.00" timeLoss="1026.44" speed="0.27" speedRelative="0.10" departed="8" arrived="4" entered="14" left="18" laneChangedFrom="0" laneChangedTo="0" flow="25.43"/>
        <edge id="-1187096042#1" sampledSeconds="351.48" traveltime="100.90" overlapTraveltime="101.75" density="3.77" overlapDensity="3.85" laneDensity="3.77" occupancy="1.48" waitingTime="298.00" timeLoss="315.49" speed="0.29" speedRelative="0.10" departed="4" arrived="0" entered="0" left="4" laneChangedFrom="0" laneChangedTo="0" flow="3.91"/>
        <edge id="-1187096043" sampledSeconds="126.40" traveltime="157.40" overlapTraveltime="102.55" density="4.06" overlapDensity="4.24" laneDensity="4.06" occupancy="2.07" waitingTime="116.00" timeLoss="120.32" speed="0.13" speedRelative="0.05" departed="2" arrived="0" entered="0" left="2" laneChangedFrom="0" laneChangedTo="0" flow="1.89"/>
        <edge id="-1187111140#0" sampledSeconds="0.00" departed="0" arrived="0" entered="0" left="0" laneChangedFrom="0" laneChangedTo="0"/>
        <edge id="-1187111141" sampledSeconds="0.00" departed="0" arrived="0" entered="0" left="0" laneChangedFrom="0" laneChangedTo="0"/>
        <edge id="-1187127235#0" sampledSeconds="0.00" departed="0" arrived="0" entered="0" left="0" laneChangedFrom="0" laneChangedTo="0"/>
        <edge id="-1187127235#1" sampledSeconds="0.00" departed="0" arrived="0" entered="0" left="0" laneChangedFrom="0" laneChangedTo="0"/>
        <edge id="-1187127235#2" sampledSeconds="0.00" departed="0" arrived="0" entered="0" left="0" laneChangedFrom="0" laneChangedTo="0"/>
        <edge id="-1187127236" sampledSeconds="0.00" departed="0" arrived="0" entered="0" left="0" laneChangedFrom="0" laneChangedTo="0"/>
        <edge id="-1187182914" sampledSeconds="0.00" departed="0" arrived="0" entered="0" left="0" laneChangedFrom="0" laneChangedTo="0"/>
        <edge id="-1187182915#0" sampledSeconds="0.00" departed="0" arrived="0" entered="0" left="0" laneChangedFrom="0" laneChangedTo="0"/>
        <edge id="-1187182915#1" sampledSeconds="0.00" departed="0" arrived="0" entered="0" left="0" laneChangedFrom="0" laneChangedTo="0"/>
        <edge id="-1187189708" sampledSeconds="0.00" departed="0" arrived="0" entered="0" left="0" laneChangedFrom="0" laneChangedTo="0"/>
        <edge id="-1187191679" sampledSeconds="0.00" departed="0" arrived="0" entered="0" left="0" laneChangedFrom="0" laneChangedTo="0"/>
        <edge id="-1187191761" sampledSeconds="0.00" departed="0" arrived="0" entered="0" left="0" laneChangedFrom="0" laneChangedTo="0"/>
        <edge id="-1190739880#0" sampledSeconds="5475.96" traveltime="312.87" overlapTraveltime="338.19" density="36.39" overlapDensity="37.80" laneDensity="36.39" occupancy="18.87" waitingTime="5083.00" timeLoss="5226.22" speed="0.13" speedRelative="0.05" departed="1" arrived="0" entered="17" left="15" laneChangedFrom="0" laneChangedTo="0" teleported="3" flow="17.55"/>
        <edge id="-1190739880#1" sampledSeconds="1187.03" traveltime="57.30" overlapTraveltime="61.55" density="14.34" overlapDensity="14.86" laneDensity="14.34" occupancy="7.65" waitingTime="915.00" timeLoss="995.94" speed="0.45" speedRelative="0.16" departed="1" arrived="1" entered="21" left="19" laneChangedFrom="0" laneChangedTo="0" flow="23.30"/>
        <edge id="-1190739881" sampledSeconds="506.76" traveltime="85.96" overlapTraveltime="85.85" density="5.86" overlapDensity="6.05" laneDensity="5.86" occupancy="2.50" waitingTime="412.00" timeLoss="443.21" speed="0.32" speedRelative="0.12" departed="7" arrived="0" entered="0" left="7" laneChangedFrom="0" laneChangedTo="0" flow="6.75"/>
        <edge id="-1190740105" sampledSeconds="0.00" departed="0" arrived="0" entered="0" left="0" laneChangedFrom="0" laneChangedTo="0"/>
        <edge id="-1190741184" sampledSeconds="1743.81" traveltime="296.59" overlapTraveltime="315.27" density="17.37" overlapDensity="17.45" laneDensity="17.37" occupancy="8.68" waitingTime="1701.00" timeLoss="1729.45" speed="0.10" speedRelative="0.01" departed="7" arrived="0" entered="0" left="7" laneChangedFrom="0" laneChangedTo="0" teleported="3" flow="6.50"/>
        <edge id="-1190741791" sampledSeconds="0.00" departed="0" arrived="0" entered="0" left="0" laneChangedFrom="0" laneChangedTo="0"/>
        <edge id="-1190742076#1" sampledSeconds="211.00" traveltime="60.37" overlapTraveltime="57.98" density="3.83" overlapDensity="3.92" laneDensity="3.83" occupancy="1.77" waitingTime="192.00" timeLoss="205.73" speed="0.34" speedRelative="0.02" departed="5" arrived="0" entered="0" left="4" laneChangedFrom="0" laneChangedTo="0" flow="4.64"/>
        <edge id="-1190742077" sampledSeconds="448.81" traveltime="129.40" overlapTraveltime="128.09" density="5.74" overlapDensity="5.79" laneDensity="5.74" occupancy="1.69" waitingTime="427.00" timeLoss="443.07" speed="0.19" speedRelative="0.01" departed="4" arrived="0" entered="0" left="4" laneChangedFrom="0" laneChangedTo="0" flow="3.95"/>
        <edge id="-1192062323" sampledSeconds="0.00" departed="0" arrived="0" entered="0" left="0" laneChangedFrom="0" laneChangedTo="0"/>
        <edge id="-1192064613" sampledSeconds="0.00" departed="0" arrived="0" entered="0" left="0" laneChangedFrom="0" laneChangedTo="0"/>
        <edge id="-1192068859" sampledSeconds="20.72" traveltime="6.51" overlapTraveltime="7.51" density="0.08" overlapDensity="0.09" laneDensity="0.08" occupancy="0.05" waitingTime="0.00" timeLoss="3.70" speed="9.52" speedRelative="0.69" departed="3" arrived="0" entered="0" left="3" laneChangedFrom="0" laneChangedTo="0" flow="2.57"/>
        <edge id="-1192068860" sampledSeconds="327.71" traveltime="86.31" overlapTraveltime="87.98" density="1.03" overlapDensity="1.05" laneDensity="1.03" occupancy="0.65" waitingTime="285.00" timeLoss="298.45" speed="1.06" speedRelative="0.08" departed="4" arrived="0" entered="0" left="4" laneChangedFrom="0" laneChangedTo="0" flow="3.91"/>
        <edge id="-1192071065" sampledSeconds="25.22" traveltime="6.00" overlapTraveltime="6.71" density="0.11" overlapDensity="0.12" laneDensity="0.11" occupancy="0.08" waitingTime="0.00" timeLoss="6.92" speed="9.80" speedRelative="0.71" departed="0" arrived="4" entered="4" left="0" laneChangedFrom="0" laneChangedTo="0" flow="4.05"/>
        <edge id="-1192084956#0" sampledSeconds="0.00" departed="0" arrived="0" entered="0" left="0" laneChangedFrom="0" laneChangedTo="0"/>
        <edge id="-1192084956#1" sampledSeconds="0.00" departed="0" arrived="0" entered="0" left="0" laneChangedFrom="0" laneChangedTo="0"/>
        <edge id="-1192084957" sampledSeconds="0.00" departed="0" arrived="0" entered="0" left="0" laneChangedFrom="0" laneChangedTo="0"/>
        <edge id="-1192086372" sampledSeconds="0.00" departed="0" arrived="0" entered="0" left="0" laneChangedFrom="0" laneChangedTo="0"/>
        <edge id="-1192086373" sampledSeconds="0.00" departed="0" arrived="0" entered="0" left="0" laneChangedFrom="0" laneChangedTo="0"/>
        <edge id="-1192347436" sampledSeconds="0.00" departed="0" arrived="0" entered="0" left="0" laneChangedFrom="0" laneChangedTo="0"/>
        <edge id="-1192348412" sampledSeconds="0.00" departed="0" arrived="0" entered="0" left="0" laneChangedFrom="0" laneChangedTo="0"/>
        <edge id="-1192352137" sampledSeconds="0.00" departed="0" arrived="0" entered="0" left="0" laneChangedFrom="0" laneChangedTo="0"/>
        <edge id="-1192359549" sampledSeconds="0.00" departed="0" arrived="0" entered="0" left="0" laneChangedFrom="0" laneChangedTo="0"/>
        <edge id="-1192360898" sampledSeconds="0.00" departed="0" arrived="0" entered="0" left="0" laneChangedFrom="0" laneChangedTo="0"/>
        <edge id="-1192361804#1" sampledSeconds="0.00" departed="0" arrived="0" entered="0" left="0" laneChangedFrom="0" laneChangedTo="0"/>
        <edge id="-1192361805" sampledSeconds="0.00" departed="0" arrived="0" entered="0" left="0" laneChangedFrom="0" laneChangedTo="0"/>
        <edge id="-1192362912" sampledSeconds="0.00" departed="0" arrived="0" entered="0" left="0" laneChangedFrom="0" laneChangedTo="0"/>
        <edge id="-1192364508" sampledSeconds="0.00" departed="0" arrived="0" entered="0" left="0" laneChangedFrom="0" laneChangedTo="0"/>
        <edge id="-1192553393" sampledSeconds="0.00" departed="0" arrived="0" entered="0" left="0" laneChangedFrom="0" laneChangedTo="0"/>
        <edge id="-1192595035" sampledSeconds="32.57" traveltime="15.85" overlapTraveltime="16.34" density="0.06" overlapDensity="0.06" laneDensity="0.06" occupancy="0.03" waitingTime="0.00" timeLoss="4.01" speed="9.81" speedRelative="0.71" departed="0" arrived="2" entered="2" left="0" laneChangedFrom="0" laneChangedTo="0" flow="2.00"/>
        <edge id="-1192595036#0" sampledSeconds="0.00" departed="0" arrived="0" entered="0" left="0" laneChangedFrom="0" laneChangedTo="0"/>
        <edge id="-1192595036#1" sampledSeconds="172.40" traveltime="29.13" overlapTraveltime="29.29" density="1.83" overlapDensity="1.86" laneDensity="1.83" occupancy="0.43" waitingTime="146.00" timeLoss="158.83" speed="0.96" speedRelative="0.07" departed="2" arrived="2" entered="4" left="4" laneChangedFrom="0" laneChangedTo="0" flow="6.33"/>
        <edge id="-1195576992#0" sampledSeconds="2.55" traveltime="2.44" overlapTraveltime="2.55" density="0.02" overlapDensity="0.02" laneDensity="0.02" occupancy="0.00" waitingTime="0.00" timeLoss="0.70" speed="16.05" speedRelative="0.72" departed="0" arrived="1" entered="1" left="0" laneChangedFrom="0" laneChangedTo="0" flow="1.01"/>
        <edge id="-1195576992#1" sampledSeconds="3774.42" traveltime="70.11" overlapTraveltime="71.15" density="7.59" overlapDensity="7.70" laneDensity="7.59" occupancy="3.71" waitingTime="2961.00" timeLoss="3397.77" speed="1.98" speedRelative="0.09" departed="4" arrived="1" entered="50" left="52" laneChangedFrom="0" laneChangedTo="0" teleported="1" flow="54.13"/>
        <edge id="-1195576992#10" sampledSeconds="438.24" traveltime="8.79" overlapTraveltime="9.42" density="2.40" overlapDensity="2.53" laneDensity="2.40" occupancy="1.50" waitingTime="203.00" timeLoss="325.89" speed="5.77" speedRelative="0.26" departed="6" arrived="1" entered="42" left="47" laneChangedFrom="0" laneChangedTo="0" flow="49.86"/>
        <edge id="-1195576992#11" sampledSeconds="2623.39" traveltime="61.00" overlapTraveltime="61.88" density="9.48" overlapDensity="9.62" laneDensity="9.48" occupancy="5.12" waitingTime="2146.00" timeLoss="2471.13" speed="1.31" speedRelative="0.06" departed="2" arrived="1" entered="42" left="42" laneChangedFrom="0" laneChangedTo="0" flow="44.77"/>
        <edge id="-1195576992#2" sampledSeconds="2432.25" traveltime="48.33" overlapTraveltime="49.41" density="36.24" overlapDensity="36.98" laneDensity="36.24" occupancy="19.54" waitingTime="2195.00" timeLoss="2379.56" speed="0.48" speedRelative="0.02" departed="6" arrived="2" entered="46" left="50" laneChangedFrom="0" laneChangedTo="0" flow="62.77"/>
        <edge id="-1195576992#4" sampledSeconds="626.10" traveltime="10.33" overlapTraveltime="17.59" density="212.77" overlapDensity="212.77" laneDensity="212.77" occupancy="17.36" waitingTime="570.00" timeLoss="610.65" speed="0.32" speedRelative="0.01" departed="8" arrived="1" entered="36" left="43" laneChangedFrom="0" laneChangedTo="0" flow="241.60"/>
        <edge id="-1195576992#5" sampledSeconds="1927.23" traveltime="41.35" overlapTraveltime="61.36" density="60.44" overlapDensity="88.34" laneDensity="60.44" occupancy="32.39" waitingTime="1827.00" timeLoss="1911.25" speed="0.19" speedRelative="0.01" departed="8" arrived="1" entered="32" left="38" laneChangedFrom="0" laneChangedTo="0" flow="40.34"/>
        <edge id="-1195576992#6" sampledSeconds="13107.20" traveltime="237.15" overlapTraveltime="240.67" density="46.55" overlapDensity="46.75" laneDensity="46.55" occupancy="25.17" waitingTime="12091.00" timeLoss="12885.43" speed="0.35" speedRelative="0.02" departed="5" arrived="0" entered="55" left="50" laneChangedFrom="0" laneChangedTo="0" teleported="3" flow="57.99"/>
        <edge id="-1195576992#7" sampledSeconds="464.41" traveltime="7.81" overlapTraveltime="8.35" density="5.54" overlapDensity="5.94" laneDensity="5.54" occupancy="2.89" waitingTime="287.00" timeLoss="397.27" speed="3.24" speedRelative="0.15" departed="7" arrived="2" entered="50" left="55" laneChangedFrom="0" laneChangedTo="0" flow="64.51"/>
        <edge id="-1195576992#9" sampledSeconds="6077.34" traveltime="120.75" overlapTraveltime="121.88" density="7.25" overlapDensity="7.31" laneDensity="7.25" occupancy="4.15" waitingTime="5118.00" timeLoss="5551.87" speed="1.94" speedRelative="0.09" departed="3" arrived="0" entered="47" left="50" laneChangedFrom="0" laneChangedTo="0" flow="50.68"/>
        <edge id="-1206809261#0" sampledSeconds="769.89" traveltime="62.13" overlapTraveltime="65.27" density="12.98" overlapDensity="13.16" laneDensity="12.98" occupancy="5.62" waitingTime="714.00" timeLoss="747.83" speed="0.32" speedRelative="0.02" departed="6" arrived="3" entered="8" left="9" laneChangedFrom="0" laneChangedTo="0" flow="14.72"/>
        <edge id="-1206809261#1" sampledSeconds="461.46" traveltime="101.05" overlapTraveltime="72.97" density="17.71" overlapDensity="18.05" laneDensity="17.71" occupancy="8.00" waitingTime="437.00" timeLoss="454.30" speed="0.16" speedRelative="0.01" departed="7" arrived="0" entered="2" left="9" laneChangedFrom="0" laneChangedTo="0" flow="10.13"/>
        <edge id="-1206852403" sampledSeconds="0.00" departed="0" arrived="0" entered="0" left="0" laneChangedFrom="0" laneChangedTo="0"/>
        <edge id="-1222415622" sampledSeconds="0.00" departed="0" arrived="0" entered="0" left="0" laneChangedFrom="0" laneChangedTo="0"/>
        <edge id="-1222415624" sampledSeconds="0.00" departed="0" arrived="0" entered="0" left="0" laneChangedFrom="0" laneChangedTo="0"/>
        <edge id="-1305503506" sampledSeconds="1429.93" traveltime="25.43" overlapTraveltime="28.35" density="19.33" overlapDensity="21.84" laneDensity="19.33" occupancy="11.57" waitingTime="1197.00" timeLoss="1343.07" speed="0.84" speedRelative="0.04" departed="10" arrived="2" entered="43" left="51" laneChangedFrom="0" laneChangedTo="0" flow="58.57"/>
        <edge id="-1314561460" sampledSeconds="648.43" traveltime="14.10" overlapTraveltime="14.39" density="16.02" overlapDensity="17.14" laneDensity="16.02" occupancy="7.01" waitingTime="505.00" timeLoss="586.96" speed="1.07" speedRelative="0.05" departed="0" arrived="0" entered="43" left="43" laneChangedFrom="0" laneChangedTo="0" flow="61.43"/>
        <edge id="-1431976928#0" sampledSeconds="8843.35" traveltime="264.42" overlapTraveltime="274.35" density="34.27" overlapDensity="34.36" laneDensity="34.27" occupancy="22.90" waitingTime="8372.00" timeLoss="8652.42" speed="0.28" speedRelative="0.02" departed="6" arrived="0" entered="33" left="31" laneChangedFrom="0" laneChangedTo="0" teleported="3" flow="35.15"/>
        <edge id="-1431976928#1" sampledSeconds="7339.96" traveltime="236.26" overlapTraveltime="239.05" density="7.75" overlapDensity="7.78" laneDensity="7.75" occupancy="4.54" waitingTime="6381.00" timeLoss="6741.62" speed="1.12" speedRelative="0.08" departed="2" arrived="1" entered="31" left="20" laneChangedFrom="0" laneChangedTo="0" teleported="1" flow="31.28"/>
        <edge id="-1431976929#0" sampledSeconds="3611.99" traveltime="126.89" overlapTraveltime="129.12" density="41.38" overlapDensity="41.70" laneDensity="41.38" occupancy="18.55" waitingTime="3402.00" timeLoss="3549.75" speed="0.22" speedRelative="0.02" departed="3" arrived="0" entered="27" left="27" laneChangedFrom="0" laneChangedTo="0" flow="32.93"/>
        <edge id="-1431976929#1" sampledSeconds="975.18" traveltime="125.82" overlapTraveltime="119.69" density="14.24" overlapDensity="14.38" laneDensity="14.24" occupancy="6.84" waitingTime="932.00" timeLoss="961.01" speed="0.20" speedRelative="0.01" departed="9" arrived="0" entered="1" left="10" laneChangedFrom="0" laneChangedTo="0" flow="10.12"/>
        <edge id="-1431976930#0" sampledSeconds="14.88" traveltime="7.32" overlapTraveltime="7.86" density="0.05" overlapDensity="0.05" laneDensity="0.05" occupancy="0.03" waitingTime="0.00" timeLoss="1.74" speed="11.10" speedRelative="0.80" departed="0" arrived="2" entered="2" left="0" laneChangedFrom="0" laneChangedTo="0" flow="2.00"/>
        <edge id="-1431976930#1" sampledSeconds="444.86" traveltime="29.34" overlapTraveltime="31.35" density="6.66" overlapDensity="6.96" laneDensity="6.66" occupancy="3.58" waitingTime="373.00" timeLoss="411.40" speed="0.73" speedRelative="0.05" departed="7" arrived="2" entered="9" left="14" laneChangedFrom="0" laneChangedTo="0" flow="17.62"/>
        <edge id="-1431976931" sampledSeconds="1222.04" traveltime="24.99" overlapTraveltime="26.19" density="6.14" overlapDensity="6.39" laneDensity="6.14" occupancy="3.48" waitingTime="841.00" timeLoss="1000.15" speed="2.24" speedRelative="0.16" departed="9" arrived="2" entered="39" left="46" laneChangedFrom="0" laneChangedTo="0" flow="49.59"/>
        <edge id="-1431978404#0" sampledSeconds="5258.33" traveltime="277.02" overlapTraveltime="280.00" density="124.76" overlapDensity="136.38" laneDensity="124.76" occupancy="48.67" waitingTime="5129.00" timeLoss="5240.18" speed="0.05" speedRelative="0.00" departed="4" arrived="0" entered="28" left="30" laneChangedFrom="0" laneChangedTo="0" teleported="2" flow="24.19"/>
        <edge id="-1431978404#1" sampledSeconds="8163.26" traveltime="343.80" overlapTraveltime="362.91" density="106.95" overlapDensity="107.16" laneDensity="106.95" occupancy="45.48" waitingTime="7921.00" timeLoss="8133.68" speed="0.07" speedRelative="0.00" departed="6" arrived="1" entered="31" left="34" laneChangedFrom="0" laneChangedTo="0" teleported="6" flow="27.14"/>
        <edge id="-1431978404#2" sampledSeconds="6477.54" traveltime="319.03" overlapTraveltime="334.13" density="101.86" overlapDensity="102.23" laneDensity="101.86" occupancy="48.22" waitingTime="6293.00" timeLoss="6455.87" speed="0.07" speedRelative="0.00" departed="3" arrived="1" entered="32" left="33" laneChangedFrom="0" laneChangedTo="0" teleported="6" flow="24.76"/>
        <edge id="-1431978404#3" sampledSeconds="6438.62" traveltime="252.25" overlapTraveltime="274.68" density="110.08" overlapDensity="110.54" laneDensity="110.08" occupancy="52.61" waitingTime="6235.00" timeLoss="6412.10" speed="0.08" speedRelative="0.00" departed="7" arrived="1" entered="36" left="41" laneChangedFrom="0" laneChangedTo="0" teleported="6" flow="31.53"/>
        <edge id="-1451563330" sampledSeconds="0.00" departed="0" arrived="0" entered="0" left="0" laneChangedFrom="0" laneChangedTo="0"/>
        <edge id="-1451563332" sampledSeconds="0.00" departed="0" arrived="0" entered="0" left="0" laneChangedFrom="0" laneChangedTo="0"/>
        <edge id="-151770988#0" sampledSeconds="124.43" traveltime="6.64" overlapTraveltime="8.12" density="0.52" overlapDensity="0.64" laneDensity="0.52" occupancy="0.38" waitingTime="0.00" timeLoss="46.80" speed="7.55" speedRelative="0.54" departed="5" arrived="2" entered="11" left="14" laneChangedFrom="0" laneChangedTo="0" flow="14.22"/>