<?xml version="1.0" encoding="UTF-8"?>

<!-- generated on 2025-12-21T13:22:42.406427+05:30 by Eclipse SUMO GUI 1.25.0
<sumoConfiguration xmlns:xsi="http://www.w3.org/2001/XMLSchema-instance" xsi:noNamespaceSchemaLocation="http://sumo.dlr.de/xsd/sumoConfiguration.xsd">

    <input>
        <net-file value="sumo_files/dy/osm_tls.net.xml.gz"/>
        <route-files value="sumo_files/dy/   osm.passenger.trips_scaled.xml,sumo_files/dy/   osm.motorcycle.trips_scaled.xml,sumo_files/dy/   osm.bus.trips_scaled.xml,sumo_files/dy/   osm.truck.trips_scaled.xml"/>
        <additional-files value="sumo_files/dy/osm.poly.xml.gz,sumo_files/dy/output.add.xml,sumo_files/dy/rl_traffic_lights.add.xml"/>
    </input>

    <output>
        <tripinfo-output value="sumo_files/dy/tripinfos.xml"/>
        <statistic-output value="sumo_files/dy/stats.xml"/>
    </output>

    <time>
        <step-length value="1.0"/>
    </time>

    <processing>
        <ignore-route-errors value="true"/>
        <time-to-teleport value="300"/>
        <tls.actuated.jam-threshold value="30"/>
    </processing>

    <routing>
        <device.rerouting.adaptation-steps value="18"/>
        <device.rerouting.adaptation-interval value="10"/>
    </routing>

    <report>
        <verbose value="true"/>
        <no-warnings value="true"/>
        <duration-log.disable value="true"/>
        <duration-log.statistics value="true"/>
        <no-step-log value="true"/>
    </report>

    <traci_server>
        <remote-port value="54195"/>
    </traci_server>

    <gui_only>
        <gui-settings-file value="sumo_files/dy/osm.view.xml"/>
    </gui_only>

</sumoConfiguration>
-->

<tripinfos xmlns:xsi="http://www.w3.org/2001/XMLSchema-instance" xsi:noNamespaceSchemaLocation="http://sumo.dlr.de/xsd/tripinfo_file.xsd">
    <tripinfo id="motorcycle26" depart="28.00" departLane="423840850#0_0" departPos="2.30" departSpeed="0.00" departDelay="0.81" arrival="137.00" arrivalLane="787858368#1_0" arrivalPos="51.34" arrivalSpeed="11.68" duration="109.00" routeLength="127.74" waitingTime="92.00" waitingCount="1" stopTime="0.00" timeLoss="97.55" rerouteNo="1" devices="tripinfo_motorcycle26 routing_motorcycle26" vType="motorcycle_motorcycle" speedFactor="0.91" vaporized=""/>
    <tripinfo id="motorcycle79" depart="83.00" departLane="-151770988#0_0" departPos="2.30" departSpeed="0.00" departDelay="0.39" arrival="137.00" arrivalLane="659857898#2_0" arrivalPos="117.96" arrivalSpeed="13.05" duration="54.00" routeLength="204.23" waitingTime="27.00" waitingCount="1" stopTime="0.00" timeLoss="37.46" rerouteNo="1" devices="tripinfo_motorcycle79 routing_motorcycle79" vType="motorcycle_motorcycle" speedFactor="0.96" vaporized=""/>
    <tripinfo id="veh115" depart="61.00" departLane="215089917#0_0" departPos="5.10" departSpeed="0.00" departDelay="0.87" arrival="141.00" arrivalLane="215090078#1_0" arrivalPos="41.51" arrivalSpeed="13.58" duration="80.00" routeLength="432.22" waitingTime="36.00" waitingCount="1" stopTime="0.00" timeLoss="48.37" rerouteNo="1" devices="tripinfo_veh115 routing_veh115" vType="veh_passenger" speedFactor="1.02" vaporized=""/>
    <tripinfo id="veh45" depart="24.00" departLane="566962241_0" departPos="5.10" departSpeed="23.80" departDelay="0.47" arrival="209.00" arrivalLane="-646210541#3_0" arrivalPos="182.51" arrivalSpeed="10.93" duration="185.00" routeLength="1036.30" waitingTime="110.00" waitingCount="1" stopTime="0.00" timeLoss="128.05" rerouteNo="1" devices="tripinfo_veh45 routing_veh45" vType="veh_passenger" speedFactor="0.86" vaporized=""/>
    <tripinfo id="motorcycle6" depart="7.00" departLane="1431976931_0" departPos="2.30" departSpeed="0.00" departDelay="0.73" arrival="255.00" arrivalLane="415046264_0" arrivalPos="17.70" arrivalSpeed="12.92" duration="248.00" routeLength="855.22" waitingTime="178.00" waitingCount="3" stopTime="0.00" timeLoss="199.69" rerouteNo="1" devices="tripinfo_motorcycle6 routing_motorcycle6" vType="motorcycle_motorcycle" speedFactor="1.12" vaporized=""/>
    <tripinfo id="veh83" depart="44.00" departLane="746615675#6_0" departPos="5.10" departSpeed="0.00" departDelay="0.61" arrival="323.00" arrivalLane="1305503506_0" arrivalPos="18.19" arrivalSpeed="7.34" duration="279.00" routeLength="573.60" waitingTime="210.00" waitingCount="3" stopTime="0.00" timeLoss="239.78" rerouteNo="1" devices="tripinfo_veh83 routing_veh83" vType="veh_passenger" speedFactor="0.88" vaporized=""/>
    <tripinfo id="motorcycle171" depart="179.00" departLane="708292171_0" departPos="2.30" departSpeed="0.00" departDelay="0.19" arrival="346.00" arrivalLane="-1190739880#1_0" arrivalPos="22.19" arrivalSpeed="2.53" duration="167.00" routeLength="889.87" waitingTime="94.00" waitingCount="2" stopTime="0.00" timeLoss="119.36" rerouteNo="1" devices="tripinfo_motorcycle171 routing_motorcycle171" vType="motorcycle_motorcycle" speedFactor="1.06" vaporized=""/>
    <tripinfo id="veh496" depart="260.00" departLane="646210542#3_0" departPos="5.10" departSpeed="0.00" departDelay="0.68" arrival="356.00" arrivalLane="-659857898#0_0" arrivalPos="35.99" arrivalSpeed="15.06" duration="96.00" routeLength="741.85" waitingTime="32.00" waitingCount="2" stopTime="0.00" timeLoss="65.32" rerouteNo="1" devices="tripinfo_veh496 routing_veh496" vType="veh_passenger" speedFactor="1.11" vaporized=""/>
    <tripinfo id="veh235" depart="123.00" departLane="1305503506_0" departPos="5.10" departSpeed="0.00" departDelay="0.14" arrival="359.00" arrivalLane="646210542#3_0" arrivalPos="18.80" arrivalSpeed="31.36" duration="236.00" routeLength="1092.25" waitingTime="157.00" waitingCount="2" stopTime="0.00" timeLoss="194.89" rerouteNo="1" devices="tripinfo_veh235 routing_veh235" vType="veh_passenger" speedFactor="1.18" vaporized=""/>
    <tripinfo id="motorcycle271" depart="284.00" departLane="659857898#0_0" departPos="2.30" departSpeed="0.00" departDelay="0.63" arrival="380.00" arrivalLane="-659857898#1_0" arrivalPos="10.56" arrivalSpeed="13.09" duration="96.00" routeLength="328.62" waitingTime="57.00" waitingCount="2" stopTime="0.00" timeLoss="69.83" rerouteNo="1" devices="tripinfo_motorcycle271 routing_motorcycle271" vType="motorcycle_motorcycle" speedFactor="0.96" vaporized=""/>
    <tripinfo id="veh244" depart="128.00" departLane="31017896#1_0" departPos="5.10" departSpeed="0.00" departDelay="0.43" arrival="385.00" arrivalLane="827899848_0" arrivalPos="37.40" arrivalSpeed="12.00" duration="257.00" routeLength="1325.37" waitingTime="145.00" waitingCount="3" stopTime="0.00" timeLoss="190.13" rerouteNo="1" devices="tripinfo_veh244 routing_veh244" vType="veh_passenger" speedFactor="0.90" vaporized=""/>
    <tripinfo id="veh295" depart="155.00" departLane="-787858368#1_0" departPos="5.10" departSpeed="0.00" departDelay="0.77" arrival="424.00" arrivalLane="-1160006921#0_0" arrivalPos="235.13" arrivalSpeed="23.87" duration="269.00" routeLength="1201.91" waitingTime="167.00" waitingCount="4" stopTime="0.00" timeLoss="211.88" rerouteNo="1" devices="tripinfo_veh295 routing_veh295" vType="veh_passenger" speedFactor="1.09" vaporized=""/>
    <tripinfo id="motorcycle24" depart="26.00" departLane="787945997_0" departPos="2.30" departSpeed="0.00" departDelay="0.90" arrival="457.00" arrivalLane="215089904#1_0" arrivalPos="29.87" arrivalSpeed="11.33" duration="431.00" routeLength="540.71" waitingTime="365.00" waitingCount="3" stopTime="0.00" timeLoss="391.43" rerouteNo="1" devices="tripinfo_motorcycle24 routing_motorcycle24" vType="motorcycle_motorcycle" speedFactor="0.91" vaporized=""/>
    <tripinfo id="motorcycle192" depart="201.00" departLane="-806357169#0_0" departPos="2.30" departSpeed="0.00" departDelay="0.23" arrival="459.00" arrivalLane="-746615675#3_0" arrivalPos="197.22" arrivalSpeed="13.08" duration="258.00" routeLength="873.52" waitingTime="180.00" waitingCount="3" stopTime="0.00" timeLoss="199.68" rerouteNo="1" devices="tripinfo_motorcycle192 routing_motorcycle192" vType="motorcycle_motorcycle" speedFactor="0.96" vaporized=""/>
    <tripinfo id="motorcycle96" depart="101.00" departLane="-215089945_0" departPos="2.30" departSpeed="0.00" departDelay="0.62" arrival="506.00" arrivalLane="749128442#3_0" arrivalPos="12.59" arrivalSpeed="6.79" duration="405.00" routeLength="288.60" waitingTime="358.00" waitingCount="4" stopTime="0.00" timeLoss="387.82" rerouteNo="1" devices="tripinfo_motorcycle96 routing_motorcycle96" vType="motorcycle_motorcycle" speedFactor="0.98" vaporized=""/>
    <tripinfo id="motorcycle181" depart="190.00" departLane="-215089904#4_0" departPos="2.30" departSpeed="0.00" departDelay="0.74" arrival="506.00" arrivalLane="825118129#4_0" arrivalPos="85.51" arrivalSpeed="10.85" duration="316.00" routeLength="341.27" waitingTime="279.00" waitingCount="3" stopTime="0.00" timeLoss="295.39" rerouteNo="1" devices="tripinfo_motorcycle181 routing_motorcycle181" vType="motorcycle_motorcycle" speedFactor="1.12" vaporized=""/>
    <tripinfo id="veh568" depart="297.00" departLane="215089904#6_0" departPos="5.10" departSpeed="0.00" departDelay="0.03" arrival="511.00" arrivalLane="820174849#0_1" arrivalPos="0.20" arrivalSpeed="11.33" duration="214.00" routeLength="458.29" waitingTime="165.00" waitingCount="2" stopTime="0.00" timeLoss="190.72" rerouteNo="1" devices="tripinfo_veh568 routing_veh568" vType="veh_passenger" speedFactor="1.12" vaporized=""/>
    <tripinfo id="veh569" depart="298.00" departLane="646210542#4_1" departPos="5.10" departSpeed="0.00" departDelay="0.51" arrival="513.00" arrivalLane="151770988#3_0" arrivalPos="52.27" arrivalSpeed="7.12" duration="215.00" routeLength="706.41" waitingTime="143.00" waitingCount="2" stopTime="0.00" timeLoss="188.80" rerouteNo="1" devices="tripinfo_veh569 routing_veh569" vType="veh_passenger" speedFactor="1.18" vaporized=""/>
    <tripinfo id="veh326" depart="171.00" departLane="749128442#1_0" departPos="5.10" departSpeed="0.00" departDelay="0.56" arrival="515.00" arrivalLane="588859419#3_0" arrivalPos="117.60" arrivalSpeed="18.40" duration="344.00" routeLength="753.19" waitingTime="267.00" waitingCount="4" stopTime="0.00" timeLoss="298.74" rerouteNo="1" devices="tripinfo_veh326 routing_veh326" vType="veh_passenger" speedFactor="0.85" vaporized=""/>
    <tripinfo id="motorcycle38" depart="40.00" departLane="1192595036#0_0" departPos="2.30" departSpeed="14.21" departDelay="0.27" arrival="515.00" arrivalLane="749128442#2_0" arrivalPos="16.69" arrivalSpeed="7.27" duration="475.00" routeLength="288.28" waitingTime="429.00" waitingCount="4" stopTime="0.00" timeLoss="457.25" rerouteNo="1" devices="tripinfo_motorcycle38 routing_motorcycle38" vType="motorcycle_motorcycle" speedFactor="1.02" vaporized=""/>
    <tripinfo id="veh762" depart="399.00" departLane="215089941_0" departPos="5.10" departSpeed="0.00" departDelay="0.61" arrival="517.00" arrivalLane="820174849#1_1" arrivalPos="51.91" arrivalSpeed="18.81" duration="118.00" routeLength="535.23" waitingTime="59.00" waitingCount="2" stopTime="0.00" timeLoss="84.32" rerouteNo="1" devices="tripinfo_veh762 routing_veh762" vType="veh_passenger" speedFactor="0.89" vaporized=""/>
    <tripinfo id="motorcycle118" depart="124.00" departLane="215089976#0_0" departPos="2.30" departSpeed="0.00" departDelay="0.61" arrival="519.00" arrivalLane="-151770988#0_0" arrivalPos="54.40" arrivalSpeed="13.14" duration="395.00" routeLength="1558.98" waitingTime="267.00" waitingCount="4" stopTime="0.00" timeLoss="303.66" rerouteNo="1" devices="tripinfo_motorcycle118 routing_motorcycle118" vType="motorcycle_motorcycle" speedFactor="0.98" vaporized=""/>
    <tripinfo id="motorcycle413" depart="432.00" departLane="423840850#0_0" departPos="2.30" departSpeed="0.00" departDelay="0.14" arrival="519.00" arrivalLane="787858369_0" arrivalPos="31.35" arrivalSpeed="11.61" duration="87.00" routeLength="102.40" waitingTime="67.00" waitingCount="1" stopTime="0.00" timeLoss="77.56" rerouteNo="1" devices="tripinfo_motorcycle413 routing_motorcycle413" vType="motorcycle_motorcycle" speedFactor="1.02" vaporized=""/>
    <tripinfo id="veh375" depart="197.00" departLane="566962242#1_0" departPos="5.10" departSpeed="0.00" departDelay="0.94" arrival="523.00" arrivalLane="1192067930_0" arrivalPos="59.54" arrivalSpeed="14.65" duration="326.00" routeLength="1524.85" waitingTime="198.00" waitingCount="3" stopTime="0.00" timeLoss="257.69" rerouteNo="1" devices="tripinfo_veh375 routing_veh375" vType="veh_passenger" speedFactor="1.14" vaporized=""/>
    <tripinfo id="truck16" depart="42.00" departLane="-31017880#0_0" departPos="7.20" departSpeed="0.00" departDelay="0.17" arrival="531.00" arrivalLane="1175896817_0" arrivalPos="84.74" arrivalSpeed="13.70" duration="489.00" routeLength="1321.87" waitingTime="336.00" waitingCount="6" stopTime="0.00" timeLoss="422.00" rerouteNo="1" devices="tripinfo_truck16 routing_truck16" vType="truck_truck" speedFactor="1.03" vaporized=""/>
    <tripinfo id="motorcycle8" depart="9.00" departLane="-646210541#4_0" departPos="2.30" departSpeed="0.00" departDelay="0.63" arrival="569.00" arrivalLane="-151770988#6_0" arrivalPos="35.25" arrivalSpeed="9.50" duration="560.00" routeLength="1013.98" waitingTime="457.00" waitingCount="6" stopTime="0.00" timeLoss="500.76" rerouteNo="1" devices="tripinfo_motorcycle8 routing_motorcycle8" vType="motorcycle_motorcycle" speedFactor="1.02" vaporized=""/>
    <tripinfo id="motorcycle449" depart="470.00" departLane="566962242#1_0" departPos="2.30" departSpeed="0.00" departDelay="0.50" arrival="570.00" arrivalLane="-215090070#3_0" arrivalPos="68.44" arrivalSpeed="7.22" duration="100.00" routeLength="386.27" waitingTime="58.00" waitingCount="1" stopTime="0.00" timeLoss="70.28" rerouteNo="1" devices="tripinfo_motorcycle449 routing_motorcycle449" vType="motorcycle_motorcycle" speedFactor="1.00" vaporized=""/>
    <tripinfo id="truck1" depart="3.00" departLane="-1206809261#1_0" departPos="7.10" departSpeed="4.05" departDelay="0.39" arrival="572.00" arrivalLane="-659857898#1_0" arrivalPos="10.56" arrivalSpeed="6.66" duration="569.00" routeLength="1340.23" waitingTime="435.00" waitingCount="5" stopTime="0.00" timeLoss="495.40" rerouteNo="1" devices="tripinfo_truck1 routing_truck1" vType="truck_truck" speedFactor="1.01" vaporized=""/>
    <tripinfo id="truck13" depart="34.00" departLane="-1178096191_0" departPos="7.20" departSpeed="13.99" departDelay="0.02" arrival="574.00" arrivalLane="646210541#4_0" arrivalPos="26.64" arrivalSpeed="8.24" duration="540.00" routeLength="949.30" waitingTime="421.00" waitingCount="5" stopTime="0.00" timeLoss="495.30" rerouteNo="1" devices="tripinfo_truck13 routing_truck13" vType="truck_truck" speedFactor="1.01" vaporized=""/>
    <tripinfo id="veh220" depart="116.00" departLane="151770986_1" departPos="5.10" departSpeed="0.00" departDelay="0.98" arrival="580.00" arrivalLane="-215089916#3_0" arrivalPos="40.87" arrivalSpeed="7.53" duration="464.00" routeLength="928.04" waitingTime="359.00" waitingCount="4" stopTime="0.00" timeLoss="404.82" rerouteNo="1" devices="tripinfo_veh220 routing_veh220" vType="veh_passenger" speedFactor="0.99" vaporized=""/>
    <tripinfo id="motorcycle187" depart="196.00" departLane="-1190741184_0" departPos="2.30" departSpeed="15.24" departDelay="0.46" arrival="580.00" arrivalLane="-215090017#0_0" arrivalPos="155.18" arrivalSpeed="13.35" duration="384.00" routeLength="404.86" waitingTime="344.00" waitingCount="2" stopTime="0.00" timeLoss="357.27" rerouteNo="1" devices="tripinfo_motorcycle187 routing_motorcycle187" vType="motorcycle_motorcycle" speedFactor="1.10" vaporized=""/>
    <tripinfo id="veh3" depart="2.00" departLane="-215089911#0_0" departPos="5.10" departSpeed="0.00" departDelay="0.43" arrival="588.00" arrivalLane="-1160006921#0_0" arrivalPos="235.13" arrivalSpeed="22.88" duration="586.00" routeLength="1431.29" waitingTime="477.00" waitingCount="4" stopTime="0.00" timeLoss="526.55" rerouteNo="1" devices="tripinfo_veh3 routing_veh3" vType="veh_passenger" speedFactor="1.06" vaporized=""/>
    <tripinfo id="motorcycle326" depart="341.00" departLane="571283261#4_1" departPos="2.30" departSpeed="0.00" departDelay="0.12" arrival="595.00" arrivalLane="646210542#3_0" arrivalPos="18.80" arrivalSpeed="27.26" duration="254.00" routeLength="1387.93" waitingTime="143.00" waitingCount="4" stopTime="0.00" timeLoss="195.77" rerouteNo="1" devices="tripinfo_motorcycle326 routing_motorcycle326" vType="motorcycle_motorcycle" speedFactor="1.02" vaporized=""/>
    <tripinfo id="veh172" depart="90.00" departLane="1164686618#0_0" departPos="5.10" departSpeed="37.42" departDelay="0.07" arrival="629.00" arrivalLane="376927932#0_0" arrivalPos="133.19" arrivalSpeed="20.07" duration="539.00" routeLength="982.14" waitingTime="486.00" waitingCount="2" stopTime="0.00" timeLoss="497.65" rerouteNo="1" devices="tripinfo_veh172 routing_veh172" vType="veh_passenger" speedFactor="0.95" vaporized=""/>
    <tripinfo id="motorcycle14" depart="15.00" departLane="571283261#4_1" departPos="2.30" departSpeed="0.00" departDelay="0.36" arrival="636.00" arrivalLane="-566962242#6_0" arrivalPos="17.58" arrivalSpeed="11.86" duration="621.00" routeLength="1453.46" waitingTime="489.00" waitingCount="8" stopTime="0.00" timeLoss="547.31" rerouteNo="1" devices="tripinfo_motorcycle14 routing_motorcycle14" vType="motorcycle_motorcycle" speedFactor="0.94" vaporized=""/>
    <tripinfo id="veh226" depart="119.00" departLane="-1431976930#1_0" departPos="5.10" departSpeed="0.00" departDelay="0.84" arrival="638.00" arrivalLane="-1431976931_0" arrivalPos="53.12" arrivalSpeed="12.41" duration="519.00" routeLength="604.51" waitingTime="444.00" waitingCount="5" stopTime="0.00" timeLoss="471.97" rerouteNo="1" devices="tripinfo_veh226 routing_veh226" vType="veh_passenger" speedFactor="0.97" vaporized=""/>
    <tripinfo id="motorcycle473" depart="495.00" departLane="-423840850#1_0" departPos="2.30" departSpeed="0.00" departDelay="0.41" arrival="639.00" arrivalLane="-566962242#6_0" arrivalPos="17.58" arrivalSpeed="8.81" duration="144.00" routeLength="80.74" waitingTime="126.00" waitingCount="2" stopTime="0.00" timeLoss="134.51" rerouteNo="1" devices="tripinfo_motorcycle473 routing_motorcycle473" vType="motorcycle_motorcycle" speedFactor="0.82" vaporized=""/>
    <tripinfo id="veh416" depart="218.00" departLane="31017890#0_2" departPos="5.10" departSpeed="0.00" departDelay="0.50" arrival="649.00" arrivalLane="-746615675#2_0" arrivalPos="17.42" arrivalSpeed="15.71" duration="431.00" routeLength="1637.02" waitingTime="286.00" waitingCount="4" stopTime="0.00" timeLoss="355.83" rerouteNo="1" devices="tripinfo_veh416 routing_veh416" vType="veh_passenger" speedFactor="1.15" vaporized=""/>
    <tripinfo id="motorcycle29" depart="31.00" departLane="-1431976928#0_0" departPos="2.30" departSpeed="0.00" departDelay="0.68" arrival="696.00" arrivalLane="215090070#1_0" arrivalPos="58.65" arrivalSpeed="6.40" duration="665.00" routeLength="834.91" waitingTime="561.00" waitingCount="7" stopTime="0.00" timeLoss="614.41" rerouteNo="1" devices="tripinfo_motorcycle29 routing_motorcycle29" vType="motorcycle_motorcycle" speedFactor="1.04" vaporized=""/>
    <tripinfo id="motorcycle396" depart="415.00" departLane="-1431976931_0" departPos="2.30" departSpeed="0.00" departDelay="0.92" arrival="702.00" arrivalLane="1177776606_0" arrivalPos="72.73" arrivalSpeed="12.24" duration="287.00" routeLength="527.96" waitingTime="221.00" waitingCount="4" stopTime="0.00" timeLoss="242.51" rerouteNo="1" devices="tripinfo_motorcycle396 routing_motorcycle396" vType="motorcycle_motorcycle" speedFactor="0.93" vaporized=""/>
    <tripinfo id="veh336" depart="176.00" departLane="746615675#4_0" departPos="5.10" departSpeed="0.00" departDelay="0.33" arrival="704.00" arrivalLane="151770988#4_0" arrivalPos="29.10" arrivalSpeed="15.52" duration="528.00" routeLength="1168.99" waitingTime="413.00" waitingCount="5" stopTime="0.00" timeLoss="466.29" rerouteNo="1" devices="tripinfo_veh336 routing_veh336" vType="veh_passenger" speedFactor="1.17" vaporized=""/>
    <tripinfo id="motorcycle350" depart="366.00" departLane="-1187096042#1_0" departPos="2.30" departSpeed="2.89" departDelay="0.02" arrival="704.00" arrivalLane="151770988#5_0" arrivalPos="18.68" arrivalSpeed="13.56" duration="338.00" routeLength="883.87" waitingTime="236.00" waitingCount="5" stopTime="0.00" timeLoss="274.29" rerouteNo="1" devices="tripinfo_motorcycle350 routing_motorcycle350" vType="motorcycle_motorcycle" speedFactor="1.04" vaporized=""/>
    <tripinfo id="truck64" depart="168.00" departLane="-1175896817_0" departPos="7.20" departSpeed="14.38" departDelay="0.70" arrival="712.00" arrivalLane="151770986_0" arrivalPos="69.91" arrivalSpeed="15.88" duration="544.00" routeLength="1258.47" waitingTime="360.00" waitingCount="9" stopTime="0.00" timeLoss="485.37" rerouteNo="1" devices="tripinfo_truck64 routing_truck64" vType="truck_truck" speedFactor="1.04" vaporized=""/>
    <tripinfo id="motorcycle111" depart="117.00" departLane="215090070#0_0" departPos="2.30" departSpeed="0.00" departDelay="0.93" arrival="715.00" arrivalLane="151770988#5_0" arrivalPos="18.68" arrivalSpeed="10.97" duration="598.00" routeLength="1648.75" waitingTime="465.00" waitingCount="5" stopTime="0.00" timeLoss="507.27" rerouteNo="1" devices="tripinfo_motorcycle111 routing_motorcycle111" vType="motorcycle_motorcycle" speedFactor="0.97" vaporized=""/>
    <tripinfo id="veh317" depart="166.00" departLane="31017896#0_0" departPos="5.10" departSpeed="0.00" departDelay="0.26" arrival="718.00" arrivalLane="707832926#9_0" arrivalPos="77.56" arrivalSpeed="19.18" duration="552.00" routeLength="1703.68" waitingTime="411.00" waitingCount="5" stopTime="0.00" timeLoss="469.59" rerouteNo="1" devices="tripinfo_veh317 routing_veh317" vType="veh_passenger" speedFactor="0.90" vaporized=""/>
    <tripinfo id="motorcycle421" depart="441.00" departLane="-215090017#2_0" departPos="2.30" departSpeed="0.00" departDelay="0.78" arrival="759.00" arrivalLane="-151770988#5_0" arrivalPos="18.11" arrivalSpeed="15.11" duration="318.00" routeLength="1693.16" waitingTime="202.00" waitingCount="2" stopTime="0.00" timeLoss="240.49" rerouteNo="1" devices="tripinfo_motorcycle421 routing_motorcycle421" vType="motorcycle_motorcycle" speedFactor="1.18" vaporized=""/>
    <tripinfo id="motorcycle208" depart="218.00" departLane="215089904#6_0" departPos="2.30" departSpeed="0.00" departDelay="0.50" arrival="760.00" arrivalLane="-749128442#4_0" arrivalPos="43.64" arrivalSpeed="7.67" duration="542.00" routeLength="332.48" waitingTime="493.00" waitingCount="4" stopTime="0.00" timeLoss="525.40" rerouteNo="1" devices="tripinfo_motorcycle208 routing_motorcycle208" vType="motorcycle_motorcycle" speedFactor="1.07" vaporized=""/>
    <tripinfo id="motorcycle241" depart="252.00" departLane="215090045#0_0" departPos="2.30" departSpeed="0.00" departDelay="0.00" arrival="761.00" arrivalLane="215089904#5_0" arrivalPos="24.16" arrivalSpeed="10.15" duration="509.00" routeLength="364.67" waitingTime="455.00" waitingCount="4" stopTime="0.00" timeLoss="475.75" rerouteNo="1" devices="tripinfo_motorcycle241 routing_motorcycle241" vType="motorcycle_motorcycle" speedFactor="0.87" vaporized=""/>
    <tripinfo id="veh17" depart="9.00" departLane="1195576992#11_0" departPos="5.10" departSpeed="0.00" departDelay="0.11" arrival="765.00" arrivalLane="-1195576992#4_0" arrivalPos="0.13" arrivalSpeed="8.24" duration="756.00" routeLength="606.19" waitingTime="681.00" waitingCount="5" stopTime="0.00" timeLoss="721.60" rerouteNo="1" devices="tripinfo_veh17 routing_veh17" vType="veh_passenger" speedFactor="0.83" vaporized=""/>
    <tripinfo id="motorcycle255" depart="267.00" departLane="1195576992#5_0" departPos="2.30" departSpeed="0.00" departDelay="0.36" arrival="765.00" arrivalLane="-749128442#5_0" arrivalPos="18.26" arrivalSpeed="17.61" duration="498.00" routeLength="551.93" waitingTime="423.00" waitingCount="4" stopTime="0.00" timeLoss="472.69" rerouteNo="1" devices="tripinfo_motorcycle255 routing_motorcycle255" vType="motorcycle_motorcycle" speedFactor="1.07" vaporized=""/>
    <tripinfo id="veh262" depart="137.00" departLane="-749128442#0_0" departPos="5.10" departSpeed="0.00" departDelay="0.02" arrival="801.00" arrivalLane="31017896#0_2" arrivalPos="128.43" arrivalSpeed="7.22" duration="664.00" routeLength="1215.59" waitingTime="519.00" waitingCount="7" stopTime="0.00" timeLoss="610.69" rerouteNo="1" devices="tripinfo_veh262 routing_veh262" vType="veh_passenger" speedFactor="1.04" vaporized=""/>
    <tripinfo id="motorcycle284" depart="297.00" departLane="215089911#0_0" departPos="2.30" departSpeed="0.00" departDelay="0.03" arrival="819.00" arrivalLane="376927932#0_0" arrivalPos="133.19" arrivalSpeed="18.40" duration="522.00" routeLength="413.02" waitingTime="477.00" waitingCount="3" stopTime="0.00" timeLoss="498.52" rerouteNo="1" devices="tripinfo_motorcycle284 routing_motorcycle284" vType="motorcycle_motorcycle" speedFactor="0.83" vaporized=""/>
    <tripinfo id="motorcycle495" depart="518.00" departLane="-215089968_0" departPos="2.30" departSpeed="2.50" departDelay="0.40" arrival="822.00" arrivalLane="-235978549_0" arrivalPos="50.27" arrivalSpeed="7.78" duration="304.00" routeLength="194.65" waitingTime="234.00" waitingCount="3" stopTime="0.00" timeLoss="260.15" rerouteNo="1" devices="tripinfo_motorcycle495 routing_motorcycle495" vType="motorcycle_motorcycle" speedFactor="0.90" vaporized=""/>
    <tripinfo id="bus122" depart="213.00" departLane="361760638_1" departPos="12.10" departSpeed="22.22" departDelay="0.38" arrival="828.00" arrivalLane="-749128442#6_0" arrivalPos="27.50" arrivalSpeed="8.55" duration="615.00" routeLength="2055.10" waitingTime="472.00" waitingCount="4" stopTime="0.00" timeLoss="528.94" rerouteNo="1" devices="tripinfo_bus122 routing_bus122" vType="bus_bus" speedFactor="1.00" vaporized=""/>
    <tripinfo id="motorcycle409" depart="428.00" departLane="646210542#2_1" departPos="2.30" departSpeed="0.00" departDelay="0.33" arrival="835.00" arrivalLane="415068142_0" arrivalPos="37.59" arrivalSpeed="11.94" duration="407.00" routeLength="638.57" waitingTime="338.00" waitingCount="3" stopTime="0.00" timeLoss="367.21" rerouteNo="1" devices="tripinfo_motorcycle409 routing_motorcycle409" vType="motorcycle_motorcycle" speedFactor="0.96" vaporized=""/>
    <tripinfo id="motorcycle521" depart="577.00" departLane="-215089916#3_0" departPos="2.30" departSpeed="0.00" departDelay="32.21" arrival="837.00" arrivalLane="215090019_0" arrivalPos="101.49" arrivalSpeed="12.45" duration="260.00" routeLength="477.72" waitingTime="204.00" waitingCount="1" stopTime="0.00" timeLoss="221.54" rerouteNo="1" devices="tripinfo_motorcycle521 routing_motorcycle521" vType="motorcycle_motorcycle" speedFactor="0.98" vaporized=""/>
    <tripinfo id="veh934" depart="489.00" departLane="-415062373_0" departPos="5.10" departSpeed="15.77" departDelay="0.68" arrival="839.00" arrivalLane="-423843627#0_0" arrivalPos="170.03" arrivalSpeed="14.70" duration="350.00" routeLength="1013.78" waitingTime="265.00" waitingCount="2" stopTime="0.00" timeLoss="289.70" rerouteNo="1" devices="tripinfo_veh934 routing_veh934" vType="veh_passenger" speedFactor="1.14" vaporized=""/>
    <tripinfo id="bus192" depart="335.00" departLane="215089908#1_0" departPos="12.10" departSpeed="0.00" departDelay="0.39" arrival="847.00" arrivalLane="646210542#4_3" arrivalPos="89.57" arrivalSpeed="17.82" duration="512.00" routeLength="915.03" waitingTime="399.00" waitingCount="4" stopTime="0.00" timeLoss="460.61" rerouteNo="1" devices="tripinfo_bus192 routing_bus192" vType="bus_bus" speedFactor="1.00" vaporized=""/>
    <tripinfo id="veh355" depart="186.00" departLane="-590993175_0" departPos="5.10" departSpeed="0.00" departDelay="0.40" arrival="858.00" arrivalLane="-31017861#7_0" arrivalPos="58.02" arrivalSpeed="1.97" duration="672.00" routeLength="2017.62" waitingTime="478.00" waitingCount="6" stopTime="0.00" timeLoss="535.63" rerouteNo="1" devices="tripinfo_veh355 routing_veh355" vType="veh_passenger" speedFactor="1.10" vaporized=""/>
    <tripinfo id="motorcycle47" depart="50.00" departLane="566962242#9_0" departPos="2.30" departSpeed="0.00" departDelay="0.85" arrival="884.00" arrivalLane="31017880#0_0" arrivalPos="128.02" arrivalSpeed="5.50" duration="834.00" routeLength="1011.66" waitingTime="725.00" waitingCount="9" stopTime="0.00" timeLoss="783.44" rerouteNo="1" devices="tripinfo_motorcycle47 routing_motorcycle47" vType="motorcycle_motorcycle" speedFactor="0.94" vaporized=""/>
    <tripinfo id="veh372" depart="195.00" departLane="820174849#1_1" departPos="5.10" departSpeed="0.00" departDelay="0.51" arrival="885.00" arrivalLane="215089917#1_0" arrivalPos="74.06" arrivalSpeed="5.85" duration="690.00" routeLength="503.23" waitingTime="617.00" waitingCount="6" stopTime="0.00" timeLoss="656.88" rerouteNo="1" devices="tripinfo_veh372 routing_veh372" vType="veh_passenger" speedFactor="0.90" vaporized=""/>
    <tripinfo id="motorcycle603" depart="635.00" departLane="1160006921#1_0" departPos="2.30" departSpeed="0.00" departDelay="4.47" arrival="885.00" arrivalLane="31017890#0_2" arrivalPos="160.59" arrivalSpeed="9.12" duration="250.00" routeLength="710.97" waitingTime="177.00" waitingCount="3" stopTime="0.00" timeLoss="217.71" rerouteNo="1" devices="tripinfo_motorcycle603 routing_motorcycle603" vType="motorcycle_motorcycle" speedFactor="0.96" vaporized=""/>
    <tripinfo id="motorcycle108" depart="113.00" departLane="-1431978404#3_0" departPos="2.30" departSpeed="0.00" departDelay="0.07" arrival="888.00" arrivalLane="215090078#1_0" arrivalPos="41.51" arrivalSpeed="13.07" duration="775.00" routeLength="792.48" waitingTime="684.00" waitingCount="8" stopTime="0.00" timeLoss="731.64" rerouteNo="1" devices="tripinfo_motorcycle108 routing_motorcycle108" vType="motorcycle_motorcycle" speedFactor="1.00" vaporized=""/>